 Entering Gaussian System, Link 0=/home/lmod/software/Binaries/g16/B.01/g16
 Input=Acetylene.com
 Output=Acetylene.log
 Initial command:
 /home/lmod/software/Binaries/g16/B.01/l1.exe "/home/oyanez/Gaussian/coms/Gau-164817.inp" -scrdir="/home/oyanez/Gaussian/coms/"
 Entering Link 1 = /home/lmod/software/Binaries/g16/B.01/l1.exe PID=    164818.
  
 Copyright (c) 1988-2017, Gaussian, Inc.  All Rights Reserved.
  
 This is part of the Gaussian(R) 16 program.  It is based on
 the Gaussian(R) 09 system (copyright 2009, Gaussian, Inc.),
 the Gaussian(R) 03 system (copyright 2003, Gaussian, Inc.),
 the Gaussian(R) 98 system (copyright 1998, Gaussian, Inc.),
 the Gaussian(R) 94 system (copyright 1995, Gaussian, Inc.),
 the Gaussian 92(TM) system (copyright 1992, Gaussian, Inc.),
 the Gaussian 90(TM) system (copyright 1990, Gaussian, Inc.),
 the Gaussian 88(TM) system (copyright 1988, Gaussian, Inc.),
 the Gaussian 86(TM) system (copyright 1986, Carnegie Mellon
 University), and the Gaussian 82(TM) system (copyright 1983,
 Carnegie Mellon University). Gaussian is a federally registered
 trademark of Gaussian, Inc.
  
 This software contains proprietary and confidential information,
 including trade secrets, belonging to Gaussian, Inc.
  
 This software is provided under written license and may be
 used, copied, transmitted, or stored only in accord with that
 written license.
  
 The following legend is applicable only to US Government
 contracts under FAR:
  
                    RESTRICTED RIGHTS LEGEND
  
 Use, reproduction and disclosure by the US Government is
 subject to restrictions as set forth in subparagraphs (a)
 and (c) of the Commercial Computer Software - Restricted
 Rights clause in FAR 52.227-19.
  
 Gaussian, Inc.
 340 Quinnipiac St., Bldg. 40, Wallingford CT 06492
  
  
 ---------------------------------------------------------------
 Warning -- This program may not be used in any manner that
 competes with the business of Gaussian, Inc. or will provide
 assistance to any competitor of Gaussian, Inc.  The licensee
 of this program is prohibited from giving any competitor of
 Gaussian, Inc. access to this program.  By using this program,
 the user acknowledges that Gaussian, Inc. is engaged in the
 business of creating and licensing software in the field of
 computational chemistry and represents and warrants to the
 licensee that it is not a competitor of Gaussian, Inc. and that
 it will not use this program in any manner prohibited above.
 ---------------------------------------------------------------
  

 Cite this work as:
 Gaussian 16, Revision B.01,
 M. J. Frisch, G. W. Trucks, H. B. Schlegel, G. E. Scuseria, 
 M. A. Robb, J. R. Cheeseman, G. Scalmani, V. Barone, 
 G. A. Petersson, H. Nakatsuji, X. Li, M. Caricato, A. V. Marenich, 
 J. Bloino, B. G. Janesko, R. Gomperts, B. Mennucci, H. P. Hratchian, 
 J. V. Ortiz, A. F. Izmaylov, J. L. Sonnenberg, D. Williams-Young, 
 F. Ding, F. Lipparini, F. Egidi, J. Goings, B. Peng, A. Petrone, 
 T. Henderson, D. Ranasinghe, V. G. Zakrzewski, J. Gao, N. Rega, 
 G. Zheng, W. Liang, M. Hada, M. Ehara, K. Toyota, R. Fukuda, 
 J. Hasegawa, M. Ishida, T. Nakajima, Y. Honda, O. Kitao, H. Nakai, 
 T. Vreven, K. Throssell, J. A. Montgomery, Jr., J. E. Peralta, 
 F. Ogliaro, M. J. Bearpark, J. J. Heyd, E. N. Brothers, K. N. Kudin, 
 V. N. Staroverov, T. A. Keith, R. Kobayashi, J. Normand, 
 K. Raghavachari, A. P. Rendell, J. C. Burant, S. S. Iyengar, 
 J. Tomasi, M. Cossi, J. M. Millam, M. Klene, C. Adamo, R. Cammi, 
 J. W. Ochterski, R. L. Martin, K. Morokuma, O. Farkas, 
 J. B. Foresman, and D. J. Fox, Gaussian, Inc., Wallingford CT, 2016.
 
 ******************************************
 Gaussian 16:  ES64L-G16RevB.01 20-Dec-2017
                25-Oct-2022 
 ******************************************
 %mem=10gb
 %nproc=10
 Will use up to   10 processors via shared memory.
 -----------------------------------------
 #p PBE1PBE/Def2TZVP Freq Opt pop=nbo6read
 -----------------------------------------
 1/18=20,19=15,26=3,38=1,163=2/1,3;
 2/9=110,12=2,17=6,18=5,40=1/2;
 3/5=44,7=101,11=2,25=1,30=1,71=1,74=-13/1,2,3;
 4//1;
 5/5=2,38=5/2;
 6/7=2,8=2,9=2,10=2,28=1,40=2,113=1,114=1,124=2103/1,12;
 7//1,2,3,16;
 1/18=20,19=15,26=3/3(2);
 2/9=110/2;
 99//99;
 2/9=110/2;
 3/5=44,7=101,11=2,25=1,30=1,71=1,74=-13/1,2,3;
 4/5=5,16=3,69=1/1;
 5/5=2,38=5/2;
 7//1,2,3,16;
 1/18=20,19=15,26=3/3(-5);
 2/9=110/2;
 6/7=2,8=2,9=2,10=2,19=2,28=1,40=2,113=1,114=1,124=2103/1,12;
 99/9=1/99;
 Leave Link    1 at Tue Oct 25 22:28:11 2022, MaxMem=  1342177280 cpu:               2.2 elap:               0.2
 (Enter /home/lmod/software/Binaries/g16/B.01/l101.exe)
 ----------------------
 1_SiLi-0000 E=0.000000
 ----------------------
 Symbolic Z-matrix:
 Charge =  0 Multiplicity = 1
 C                     0.0622   -0.0009   -0.0006 
 C                     1.268     0.0012   -0.001 
 H                    -1.0278   -0.0028   -0.0003 
 H                     2.358     0.0032   -0.0013 
 
 ITRead=  0  0  0  0
 MicOpt= -1 -1 -1 -1
 NAtoms=      4 NQM=        4 NQMF=       0 NMMI=      0 NMMIF=      0
                NMic=       0 NMicF=      0.
                    Isotopes and Nuclear Properties:
 (Nuclear quadrupole moments (NQMom) in fm**2, nuclear magnetic moments (NMagM)
  in nuclear magnetons)

  Atom         1           2           3           4
 IAtWgt=          12          12           1           1
 AtmWgt=  12.0000000  12.0000000   1.0078250   1.0078250
 NucSpn=           0           0           1           1
 AtZEff=  -0.0000000  -0.0000000  -0.0000000  -0.0000000
 NQMom=    0.0000000   0.0000000   0.0000000   0.0000000
 NMagM=    0.0000000   0.0000000   2.7928460   2.7928460
 AtZNuc=   6.0000000   6.0000000   1.0000000   1.0000000
 Leave Link  101 at Tue Oct 25 22:28:12 2022, MaxMem=  1342177280 cpu:               2.4 elap:               0.3
 (Enter /home/lmod/software/Binaries/g16/B.01/l103.exe)

 GradGradGradGradGradGradGradGradGradGradGradGradGradGradGradGradGradGrad
 Berny optimization.
 Initialization pass.
                           ----------------------------
                           !    Initial Parameters    !
                           ! (Angstroms and Degrees)  !
 --------------------------                            --------------------------
 ! Name  Definition              Value          Derivative Info.                !
 --------------------------------------------------------------------------------
 ! R1    R(1,2)                  1.2058         estimate D2E/DX2                !
 ! R2    R(1,3)                  1.09           estimate D2E/DX2                !
 ! R3    R(2,4)                  1.09           estimate D2E/DX2                !
 ! A1    L(2,1,3,-3,-1)        179.9999         estimate D2E/DX2                !
 ! A2    L(1,2,4,-3,-1)        179.9947         estimate D2E/DX2                !
 ! A3    L(2,1,3,-2,-2)        180.0032         estimate D2E/DX2                !
 ! A4    L(1,2,4,-2,-2)        180.0032         estimate D2E/DX2                !
 --------------------------------------------------------------------------------
 Trust Radius=3.00D-01 FncErr=1.00D-07 GrdErr=1.00D-06 EigMax=2.50D+02 EigMin=1.00D-04
 Number of steps in this run=     20 maximum allowed number of steps=    100.
 GradGradGradGradGradGradGradGradGradGradGradGradGradGradGradGradGradGrad

 Leave Link  103 at Tue Oct 25 22:28:12 2022, MaxMem=  1342177280 cpu:               0.1 elap:               0.0
 (Enter /home/lmod/software/Binaries/g16/B.01/l202.exe)
                          Input orientation:                          
 ---------------------------------------------------------------------
 Center     Atomic      Atomic             Coordinates (Angstroms)
 Number     Number       Type             X           Y           Z
 ---------------------------------------------------------------------
      1          6           0        0.062200   -0.000900   -0.000600
      2          6           0        1.268000    0.001200   -0.001000
      3          1           0       -1.027800   -0.002800   -0.000300
      4          1           0        2.358000    0.003200   -0.001300
 ---------------------------------------------------------------------
                    Distance matrix (angstroms):
                    1          2          3          4
     1  C    0.000000
     2  C    1.205802   0.000000
     3  H    1.090002   2.295804   0.000000
     4  H    2.295804   1.090002   3.385805   0.000000
 Stoichiometry    C2H2
 Framework group  C*V[C*(HCCH)]
 Deg. of freedom     3
 Full point group                 C*V     NOp   4
 Largest Abelian subgroup         C2V     NOp   4
 Largest concise Abelian subgroup C1      NOp   1
                         Standard orientation:                         
 ---------------------------------------------------------------------
 Center     Atomic      Atomic             Coordinates (Angstroms)
 Number     Number       Type             X           Y           Z
 ---------------------------------------------------------------------
      1          6           0       -0.000000   -0.000000   -0.602901
      2          6           0        0.000000    0.000000    0.602901
      3          1           0       -0.000000    0.000000   -1.692903
      4          1           0        0.000000   -0.000000    1.692903
 ---------------------------------------------------------------------
 Rotational constants (GHZ):           0.0000000          34.8526662          34.8526662
 Leave Link  202 at Tue Oct 25 22:28:12 2022, MaxMem=  1342177280 cpu:               0.1 elap:               0.0
 (Enter /home/lmod/software/Binaries/g16/B.01/l301.exe)
 Standard basis: def2TZVP (5D, 7F)
 Ernie: Thresh=  0.10000D-02 Tol=  0.10000D-05 Strict=F.
 There are    42 symmetry adapted cartesian basis functions of A1  symmetry.
 There are     6 symmetry adapted cartesian basis functions of A2  symmetry.
 There are    18 symmetry adapted cartesian basis functions of B1  symmetry.
 There are    18 symmetry adapted cartesian basis functions of B2  symmetry.
 There are    36 symmetry adapted basis functions of A1  symmetry.
 There are     6 symmetry adapted basis functions of A2  symmetry.
 There are    16 symmetry adapted basis functions of B1  symmetry.
 There are    16 symmetry adapted basis functions of B2  symmetry.
    74 basis functions,   118 primitive gaussians,    84 cartesian basis functions
     7 alpha electrons        7 beta electrons
       nuclear repulsion energy        24.5469884253 Hartrees.
 IExCor= 1009 DFT=T Ex+Corr=PBE1PBE ExCW=0 ScaHFX=  0.250000
 ScaDFX=  0.750000  0.750000  1.000000  1.000000 ScalE2=  1.000000  1.000000
 IRadAn=      5 IRanWt=     -1 IRanGd=            0 ICorTp=0 IEmpDi=  4
 NAtoms=    4 NActive=    4 NUniq=    4 SFac= 1.00D+00 NAtFMM=   60 NAOKFM=F Big=F
 Integral buffers will be    131072 words long.
 Raffenetti 2 integral format.
 Two-electron integral symmetry is turned on.
 Leave Link  301 at Tue Oct 25 22:28:12 2022, MaxMem=  1342177280 cpu:               0.5 elap:               0.1
 (Enter /home/lmod/software/Binaries/g16/B.01/l302.exe)
 NPDir=0 NMtPBC=     1 NCelOv=     1 NCel=       1 NClECP=     1 NCelD=      1
         NCelK=      1 NCelE2=     1 NClLst=     1 CellRange=     0.0.
 One-electron integrals computed using PRISM.
 One-electron integral symmetry used in STVInt
   4 Symmetry operations used in ECPInt.
 ECPInt:  NShTT=     465 NPrTT=    1428 LenC2=     466 LenP2D=    1332.
 LDataN:  DoStor=T MaxTD1= 6 Len=  172
 NBasis=    74 RedAO= T EigKep=  3.05D-05  NBF=    36     6    16    16
 NBsUse=    74 1.00D-06 EigRej= -1.00D+00 NBFU=    36     6    16    16
 Precomputing XC quadrature grid using
 IXCGrd= 4 IRadAn=           5 IRanWt=          -1 IRanGd=           0 AccXCQ= 0.00D+00.
 Generated NRdTot=       0 NPtTot=           0 NUsed=           0 NTot=          32
 NSgBfM=    84    84    84    84    84 MxSgAt=     4 MxSgA2=     4.
 Leave Link  302 at Tue Oct 25 22:28:12 2022, MaxMem=  1342177280 cpu:               1.2 elap:               0.1
 (Enter /home/lmod/software/Binaries/g16/B.01/l303.exe)
 DipDrv:  MaxL=1.
 Leave Link  303 at Tue Oct 25 22:28:12 2022, MaxMem=  1342177280 cpu:               0.2 elap:               0.0
 (Enter /home/lmod/software/Binaries/g16/B.01/l401.exe)
 ExpMin= 9.52D-02 ExpMax= 1.36D+04 ExpMxC= 4.63D+02 IAcc=3 IRadAn=         5 AccDes= 0.00D+00
 Harris functional with IExCor= 1009 and IRadAn=       5 diagonalized for initial guess.
 HarFok:  IExCor= 1009 AccDes= 0.00D+00 IRadAn=         5 IDoV= 1 UseB2=F ITyADJ=14
 ICtDFT=  3500011 ScaDFX=  1.000000  1.000000  1.000000  1.000000
 FoFCou: FMM=F IPFlag=           0 FMFlag=      100000 FMFlg1=           0
         NFxFlg=           0 DoJE=T BraDBF=F KetDBF=T FulRan=T
         wScrn=  0.000000 ICntrl=       500 IOpCl=  0 I1Cent=   200000004 NGrid=           0
         NMat0=    1 NMatS0=      1 NMatT0=    0 NMatD0=    1 NMtDS0=    0 NMtDT0=    0
 Petite list used in FoFCou.
 Harris En= -77.3232013159263    
 JPrj=0 DoOrth=F DoCkMO=F.
 Initial guess orbital symmetries:
       Occupied  (SG) (SG) (SG) (SG) (SG) (PI) (PI)
       Virtual   (PI) (PI) (SG) (SG) (SG) (SG) (PI) (PI) (PI) (PI)
                 (SG) (SG) (DLTA) (DLTA) (SG) (SG) (PI) (PI) (SG)
                 (DLTA) (DLTA) (SG) (PI) (PI) (SG) (PI) (PI) (SG)
                 (SG) (PI) (PI) (SG) (PI) (PI) (SG) (DLTA) (DLTA)
                 (PI) (PI) (PHI) (PHI) (SG) (PI) (PI) (SG) (SG)
                 (PHI) (PHI) (SG) (DLTA) (DLTA) (PI) (PI) (DLTA)
                 (DLTA) (DLTA) (DLTA) (SG) (PI) (PI) (SG) (PI)
                 (PI) (SG) (SG) (SG) (SG)
 The electronic state of the initial guess is 1-SG.
 Leave Link  401 at Tue Oct 25 22:28:12 2022, MaxMem=  1342177280 cpu:               1.5 elap:               0.2
 (Enter /home/lmod/software/Binaries/g16/B.01/l502.exe)
 Keep R1 ints in memory in symmetry-blocked form, NReq=12959866.
 FoFCou: FMM=F IPFlag=           0 FMFlag=           0 FMFlg1=           0
         NFxFlg=           0 DoJE=F BraDBF=F KetDBF=F FulRan=T
         wScrn=  0.000000 ICntrl=       600 IOpCl=  0 I1Cent=           0 NGrid=           0
         NMat0=    1 NMatS0=   2775 NMatT0=    0 NMatD0=    1 NMtDS0=    0 NMtDT0=    0
 Petite list used in FoFCou.
 Closed shell SCF:
 Using DIIS extrapolation, IDIIS=  1040.
 NGot=  1342177280 LenX=  1341128526 LenY=  1341121029
 Requested convergence on RMS density matrix=1.00D-08 within 128 cycles.
 Requested convergence on MAX density matrix=1.00D-06.
 Requested convergence on             energy=1.00D-06.
 No special actions if energy rises.
 Integral accuracy reduced to 1.0D-05 until final iterations.

 Cycle   1  Pass 0  IDiag  1:
 E= -77.1737818419588    
 DIIS: error= 4.40D-02 at cycle   1 NSaved=   1.
 NSaved= 1 IEnMin= 1 EnMin= -77.1737818419588     IErMin= 1 ErrMin= 4.40D-02
 ErrMax= 4.40D-02  0.00D+00 EMaxC= 1.00D-01 BMatC= 8.06D-02 BMatP= 8.06D-02
 IDIUse=3 WtCom= 5.60D-01 WtEn= 4.40D-01
 Coeff-Com:  0.100D+01
 Coeff-En:   0.100D+01
 Coeff:      0.100D+01
 Gap=     0.286 Goal=   None    Shift=    0.000
 GapD=    0.286 DampG=1.000 DampE=0.500 DampFc=0.5000 IDamp=-1.
 Damping current iteration by 5.00D-01
 RMSDP=4.90D-03 MaxDP=5.68D-02              OVMax= 1.77D-01

 Cycle   2  Pass 0  IDiag  1:
 E= -77.2140160303013     Delta-E=       -0.040234188343 Rises=F Damp=T
 DIIS: error= 6.41D-03 at cycle   2 NSaved=   2.
 NSaved= 2 IEnMin= 2 EnMin= -77.2140160303013     IErMin= 2 ErrMin= 6.41D-03
 ErrMax= 6.41D-03  0.00D+00 EMaxC= 1.00D-01 BMatC= 2.13D-03 BMatP= 8.06D-02
 IDIUse=3 WtCom= 9.36D-01 WtEn= 6.41D-02
 Coeff-Com: -0.524D-01 0.105D+01
 Coeff-En:   0.000D+00 0.100D+01
 Coeff:     -0.491D-01 0.105D+01
 Gap=     0.346 Goal=   None    Shift=    0.000
 RMSDP=1.15D-03 MaxDP=1.37D-02 DE=-4.02D-02 OVMax= 9.09D-02

 Cycle   3  Pass 0  IDiag  1:
 E= -77.2549176412470     Delta-E=       -0.040901610946 Rises=F Damp=F
 DIIS: error= 2.11D-03 at cycle   3 NSaved=   3.
 NSaved= 3 IEnMin= 3 EnMin= -77.2549176412470     IErMin= 3 ErrMin= 2.11D-03
 ErrMax= 2.11D-03  0.00D+00 EMaxC= 1.00D-01 BMatC= 1.52D-04 BMatP= 2.13D-03
 IDIUse=3 WtCom= 9.79D-01 WtEn= 2.11D-02
 Coeff-Com: -0.439D-01 0.117D+00 0.927D+00
 Coeff-En:   0.000D+00 0.000D+00 0.100D+01
 Coeff:     -0.429D-01 0.114D+00 0.929D+00
 Gap=     0.338 Goal=   None    Shift=    0.000
 RMSDP=1.36D-04 MaxDP=1.23D-03 DE=-4.09D-02 OVMax= 4.42D-03

 Cycle   4  Pass 0  IDiag  1:
 E= -77.2550893374107     Delta-E=       -0.000171696164 Rises=F Damp=F
 DIIS: error= 9.95D-05 at cycle   4 NSaved=   4.
 NSaved= 4 IEnMin= 4 EnMin= -77.2550893374107     IErMin= 4 ErrMin= 9.95D-05
 ErrMax= 9.95D-05  0.00D+00 EMaxC= 1.00D-01 BMatC= 2.06D-07 BMatP= 1.52D-04
 IDIUse=1 WtCom= 1.00D+00 WtEn= 0.00D+00
 Coeff-Com: -0.372D-02 0.459D-02 0.805D-01 0.919D+00
 Coeff:     -0.372D-02 0.459D-02 0.805D-01 0.919D+00
 Gap=     0.338 Goal=   None    Shift=    0.000
 RMSDP=2.04D-05 MaxDP=2.23D-04 DE=-1.72D-04 OVMax= 1.80D-04

 Cycle   5  Pass 0  IDiag  1:
 E= -77.2550895338677     Delta-E=       -0.000000196457 Rises=F Damp=F
 DIIS: error= 1.01D-05 at cycle   5 NSaved=   5.
 NSaved= 5 IEnMin= 5 EnMin= -77.2550895338677     IErMin= 5 ErrMin= 1.01D-05
 ErrMax= 1.01D-05  0.00D+00 EMaxC= 1.00D-01 BMatC= 2.98D-09 BMatP= 2.06D-07
 IDIUse=1 WtCom= 1.00D+00 WtEn= 0.00D+00
 Coeff-Com: -0.112D-03-0.298D-04-0.839D-03 0.151D-01 0.986D+00
 Coeff:     -0.112D-03-0.298D-04-0.839D-03 0.151D-01 0.986D+00
 Gap=     0.338 Goal=   None    Shift=    0.000
 RMSDP=1.80D-06 MaxDP=1.95D-05 DE=-1.96D-07 OVMax= 1.72D-05

 Initial convergence to 1.0D-05 achieved.  Increase integral accuracy.
 Cycle   6  Pass 1  IDiag  1:
 E= -77.2550886938945     Delta-E=        0.000000839973 Rises=F Damp=F
 DIIS: error= 1.18D-06 at cycle   1 NSaved=   1.
 NSaved= 1 IEnMin= 1 EnMin= -77.2550886938945     IErMin= 1 ErrMin= 1.18D-06
 ErrMax= 1.18D-06  0.00D+00 EMaxC= 1.00D-01 BMatC= 8.27D-11 BMatP= 8.27D-11
 IDIUse=1 WtCom= 1.00D+00 WtEn= 0.00D+00
 Coeff-Com:  0.100D+01
 Coeff:      0.100D+01
 Gap=     0.338 Goal=   None    Shift=    0.000
 RMSDP=1.80D-06 MaxDP=1.95D-05 DE= 8.40D-07 OVMax= 4.36D-06

 Cycle   7  Pass 1  IDiag  1:
 E= -77.2550886939426     Delta-E=       -0.000000000048 Rises=F Damp=F
 DIIS: error= 7.74D-07 at cycle   2 NSaved=   2.
 NSaved= 2 IEnMin= 2 EnMin= -77.2550886939426     IErMin= 2 ErrMin= 7.74D-07
 ErrMax= 7.74D-07  0.00D+00 EMaxC= 1.00D-01 BMatC= 2.67D-11 BMatP= 8.27D-11
 IDIUse=1 WtCom= 1.00D+00 WtEn= 0.00D+00
 Coeff-Com:  0.346D+00 0.654D+00
 Coeff:      0.346D+00 0.654D+00
 Gap=     0.338 Goal=   None    Shift=    0.000
 RMSDP=8.01D-08 MaxDP=1.04D-06 DE=-4.81D-11 OVMax= 2.35D-06

 Cycle   8  Pass 1  IDiag  1:
 E= -77.2550886939662     Delta-E=       -0.000000000024 Rises=F Damp=F
 DIIS: error= 2.87D-07 at cycle   3 NSaved=   3.
 NSaved= 3 IEnMin= 3 EnMin= -77.2550886939662     IErMin= 3 ErrMin= 2.87D-07
 ErrMax= 2.87D-07  0.00D+00 EMaxC= 1.00D-01 BMatC= 4.24D-12 BMatP= 2.67D-11
 IDIUse=1 WtCom= 1.00D+00 WtEn= 0.00D+00
 Coeff-Com:  0.121D+00 0.333D+00 0.546D+00
 Coeff:      0.121D+00 0.333D+00 0.546D+00
 Gap=     0.338 Goal=   None    Shift=    0.000
 RMSDP=2.31D-08 MaxDP=3.31D-07 DE=-2.36D-11 OVMax= 1.14D-06

 Cycle   9  Pass 1  IDiag  1:
 E= -77.2550886939695     Delta-E=       -0.000000000003 Rises=F Damp=F
 DIIS: error= 1.92D-07 at cycle   4 NSaved=   4.
 NSaved= 4 IEnMin= 4 EnMin= -77.2550886939695     IErMin= 4 ErrMin= 1.92D-07
 ErrMax= 1.92D-07  0.00D+00 EMaxC= 1.00D-01 BMatC= 1.24D-12 BMatP= 4.24D-12
 IDIUse=1 WtCom= 1.00D+00 WtEn= 0.00D+00
 Coeff-Com:  0.485D-01 0.166D+00 0.379D+00 0.407D+00
 Coeff:      0.485D-01 0.166D+00 0.379D+00 0.407D+00
 Gap=     0.338 Goal=   None    Shift=    0.000
 RMSDP=8.69D-09 MaxDP=1.39D-07 DE=-3.27D-12 OVMax= 4.81D-07

 SCF Done:  E(RPBE1PBE) =  -77.2550886940     A.U. after    9 cycles
            NFock=  9  Conv=0.87D-08     -V/T= 2.0063
 KE= 7.677242671473D+01 PE=-2.283005995843D+02 EE= 4.972609575026D+01
 Leave Link  502 at Tue Oct 25 22:28:13 2022, MaxMem=  1342177280 cpu:               4.5 elap:               0.5
 (Enter /home/lmod/software/Binaries/g16/B.01/l601.exe)
 Copying SCF densities to generalized density rwf, IOpCl= 0 IROHF=0.

 **********************************************************************

            Population analysis using the SCF Density.

 **********************************************************************

 Orbital symmetries:
       Occupied  (SG) (SG) (SG) (SG) (SG) (PI) (PI)
       Virtual   (PI) (PI) (SG) (SG) (SG) (PI) (PI) (SG) (PI) (PI)
                 (SG) (SG) (SG) (DLTA) (DLTA) (SG) (PI) (PI) (SG)
                 (DLTA) (DLTA) (SG) (PI) (PI) (SG) (PI) (PI) (SG)
                 (PI) (PI) (SG) (SG) (PI) (PI) (SG) (PI) (PI) (DLTA)
                 (DLTA) (SG) (PHI) (PHI) (PI) (PI) (SG) (SG) (SG)
                 (PHI) (PHI) (DLTA) (DLTA) (PI) (PI) (DLTA) (DLTA)
                 (DLTA) (DLTA) (SG) (PI) (PI) (SG) (PI) (PI) (SG)
                 (SG) (SG) (SG)
 The electronic state is 1-SG.
 Alpha  occ. eigenvalues --  -10.23693 -10.23440  -0.77604  -0.57950  -0.50648
 Alpha  occ. eigenvalues --   -0.30798  -0.30798
 Alpha virt. eigenvalues --    0.03037   0.03037   0.06626   0.09766   0.14422
 Alpha virt. eigenvalues --    0.22759   0.22759   0.22789   0.33528   0.33528
 Alpha virt. eigenvalues --    0.36067   0.39975   0.54974   0.60102   0.60102
 Alpha virt. eigenvalues --    0.62972   0.72516   0.72516   0.89033   0.90312
 Alpha virt. eigenvalues --    0.90312   0.95893   1.06304   1.06304   1.23721
 Alpha virt. eigenvalues --    1.43683   1.43683   1.47488   1.57959   1.57959
 Alpha virt. eigenvalues --    1.59209   1.93216   1.95173   1.95173   2.05508
 Alpha virt. eigenvalues --    2.44588   2.44588   2.47513   2.47513   2.51210
 Alpha virt. eigenvalues --    2.53073   2.53073   2.65570   2.65570   2.76765
 Alpha virt. eigenvalues --    2.81656   2.92890   2.94065   2.94065   2.99350
 Alpha virt. eigenvalues --    2.99350   3.01918   3.01918   3.07608   3.07608
 Alpha virt. eigenvalues --    3.59193   3.59193   3.63981   3.82433   3.82433
 Alpha virt. eigenvalues --    4.54020   4.65168   4.65168   4.80279   5.38946
 Alpha virt. eigenvalues --   21.94287  22.71329
          Condensed to atoms (all electrons):
               1          2          3          4
     1  C    4.866666   0.940302   0.402947  -0.019274
     2  C    0.940302   4.866667  -0.019274   0.402947
     3  H    0.402947  -0.019274   0.425078   0.000609
     4  H   -0.019274   0.402947   0.000609   0.425078
 Mulliken charges:
               1
     1  C   -0.190641
     2  C   -0.190641
     3  H    0.190641
     4  H    0.190641
 Sum of Mulliken charges =  -0.00000
 Mulliken charges with hydrogens summed into heavy atoms:
               1
     1  C    0.000000
     2  C   -0.000000
 Electronic spatial extent (au):  <R**2>=             61.4076
 Charge=             -0.0000 electrons
 Dipole moment (field-independent basis, Debye):
    X=             -0.0000    Y=             -0.0000    Z=             -0.0000  Tot=              0.0000
 Quadrupole moment (field-independent basis, Debye-Ang):
   XX=            -13.7553   YY=            -13.7553   ZZ=             -6.6024
   XY=              0.0000   XZ=              0.0000   YZ=             -0.0000
 Traceless Quadrupole moment (field-independent basis, Debye-Ang):
   XX=             -2.3843   YY=             -2.3843   ZZ=              4.7686
   XY=              0.0000   XZ=              0.0000   YZ=             -0.0000
 Octapole moment (field-independent basis, Debye-Ang**2):
  XXX=             -0.0000  YYY=             -0.0000  ZZZ=              0.0000  XYY=             -0.0000
  XXY=             -0.0000  XXZ=             -0.0000  XZZ=             -0.0000  YZZ=             -0.0000
  YYZ=             -0.0000  XYZ=              0.0000
 Hexadecapole moment (field-independent basis, Debye-Ang**3):
 XXXX=            -16.6757 YYYY=            -16.6757 ZZZZ=            -36.2663 XXXY=              0.0000
 XXXZ=             -0.0000 YYYX=              0.0000 YYYZ=             -0.0000 ZZZX=             -0.0000
 ZZZY=             -0.0000 XXYY=             -5.5586 XXZZ=            -12.7237 YYZZ=            -12.7237
 XXYZ=             -0.0000 YYXZ=             -0.0000 ZZXY=              0.0000
 N-N= 2.454698842530D+01 E-N=-2.283005974214D+02  KE= 7.677242671473D+01
 Symmetry A1   KE= 7.235539471149D+01
 Symmetry A2   KE= 8.478900849886D-36
 Symmetry B1   KE= 2.208516001619D+00
 Symmetry B2   KE= 2.208516001619D+00
 No NMR shielding tensors so no spin-rotation constants.
 Leave Link  601 at Tue Oct 25 22:28:13 2022, MaxMem=  1342177280 cpu:               0.9 elap:               0.1
 (Enter /home/lmod/software/Binaries/g16/B.01/l612.exe)
 Running external command "gaunbo6 R"
         input file       "/home/oyanez/Gaussian/coms/Gau-164818.EIn"
         output file      "/home/oyanez/Gaussian/coms/Gau-164818.EOu"
         message file     "/home/oyanez/Gaussian/coms/Gau-164818.EMs"
         fchk file        "/home/oyanez/Gaussian/coms/Gau-164818.EFC"
         mat. el file     "/home/oyanez/Gaussian/coms/Gau-164818.EUF"
 Warning:  Reading an uninitialized block!
 Want step      1 but only have      0 steps.

 Writing WrtUnf unformatted file "/home/oyanez/Gaussian/coms/Gau-164818.EUF"
 Gaussian matrix elements                                         Version   2 NLab=11 Len12L=8 Len4L=8
 Write SHELL TO ATOM MAP                   from file     0 offset           0 length                  30 to matrix element file.
 Write SHELL TYPES                         from file     0 offset           0 length                  30 to matrix element file.
 Write NUMBER OF PRIMITIVES PER SHELL      from file     0 offset           0 length                  30 to matrix element file.
 Write PRIMITIVE EXPONENTS                 from file     0 offset           0 length                  52 to matrix element file.
 Write CONTRACTION COEFFICIENTS            from file     0 offset           0 length                  52 to matrix element file.
 Write P(S=P) CONTRACTION COEFFICIENTS     from file     0 offset           0 length                  52 to matrix element file.
 Write COORDINATES OF EACH SHELL           from file     0 offset           0 length                  90 to matrix element file.
 Write BONDS PER ATOM                      from file     0 offset           0 length                   4 to matrix element file.
 Write BONDED ATOMS                        from file     0 offset           0 length                   6 to matrix element file.
 Write BOND TYPES                          from file     0 offset           0 length                   6 to matrix element file.
 Write GAUSSIAN SCALARS                    from file   501 offset           0 to matrix element file.
 Write INTEGER ISO                         from file     0 offset           0 length                   4 to matrix element file.
 Write INTEGER SPIN                        from file     0 offset           0 length                   4 to matrix element file.
 Write REAL ZEFFECTIVE                     from file     0 offset           0 length                   4 to matrix element file.
 Write REAL GFACTOR                        from file     0 offset           0 length                   4 to matrix element file.
 Write REAL ZNUCLEAR                       from file     0 offset           0 length                   4 to matrix element file.
 Write MULLIKEN CHARGES                    from file     0 offset           0 length                   4 to matrix element file.
 Write NUCLEAR GRADIENT                    from file 10584 offset           0 length                  12 to matrix element file.
 Array NUCLEAR FORCE CONSTANTS              on  file 10585 does not exist.
 Write ELECTRIC DIPOLE MOMENT              from file     0 offset           0 length                   3 to matrix element file.
 Write NON-ADIABATIC COUPLING              from file 10810 offset           0 length                  12 to matrix element file.
 Write OVERLAP                             from file 10514 offset           0 length                2775 to matrix element file.
 Write CORE HAMILTONIAN ALPHA              from file 10515 offset           0 length                2775 to matrix element file.
 Write CORE HAMILTONIAN BETA               from file 10515 offset        2775 length                2775 to matrix element file.
 Write KINETIC ENERGY                      from file 10516 offset           0 length                2775 to matrix element file.
 Write ORTHOGONAL BASIS                    from file 10685 offset           0 length                5476 to matrix element file.
 Write DIPOLE INTEGRALS                    from file 10518 offset           0 length                8325 to matrix element file.
 Array DIP VEL INTEGRALS                    on  file 10572 does not exist.
 Array R X DEL INTEGRALS                    on  file 10572 does not exist.
 Write ALPHA ORBITAL ENERGIES              from file     0 offset           0 length                  74 to matrix element file.
 Write ALPHA MO COEFFICIENTS               from file 10524 offset           0 length                5476 to matrix element file.
 Write ALPHA DENSITY MATRIX                from file     0 offset           0 length                2775 to matrix element file.
 Write ALPHA SCF DENSITY MATRIX            from file 10528 offset           0 length                2775 to matrix element file.
 Write ALPHA FOCK MATRIX                   from file 10536 offset           0 length                2775 to matrix element file.
 Write ALPHA SCF DENSITY                   from file     0 offset           0 length                2775 to matrix element file.
 No 2e integrals to process.
 Perform NBO analysis...executing G16NBO...

 *********************************** NBO 7.0 ***********************************
             N A T U R A L   A T O M I C   O R B I T A L   A N D
          N A T U R A L   B O N D   O R B I T A L   A N A L Y S I S
 *********************** Kerry Wrighton-Araneda (I102012) **********************
  (c) Copyright 1996-2020 Board of Regents of the University of Wisconsin System
      on behalf of the Theoretical Chemistry Institute.  All rights reserved.

          Cite this program [NBO 7.0.9 (21-May-2020)] as:

          NBO 7.0.  E. D. Glendening, J. K. Badenhoop, A. E. Reed,
          J. E. Carpenter, J. A. Bohmann, C. M. Morales, P. Karafiloglou,
          C. R. Landis, and F. Weinhold, Theoretical Chemistry Institute,
          University of Wisconsin, Madison, WI (2018)

       /BNDIDX / : Print bond indices based on the NAO density matrix

 Filename set to /home/oyanez/Gaussian/coms/Gau-164818

 Job title: 1_SiLi-0000 E=0.000000


 NATURAL POPULATIONS:  Natural atomic orbital occupancies

  NAO Atom No lang   Type(AO)    Occupancy      Energy
 -------------------------------------------------------
   1    C  1  s      Cor( 1s)     1.99999     -10.23559
   2    C  1  s      Val( 2s)     1.03875      -0.10744
   3    C  1  s      Ryd( 3s)     0.00374       0.96343
   4    C  1  s      Ryd( 4s)     0.00010       8.30534
   5    C  1  s      Ryd( 5s)     0.00000      12.40886
   6    C  1  px     Val( 2p)     0.99864      -0.10719
   7    C  1  px     Ryd( 4p)     0.00001       1.33915
   8    C  1  px     Ryd( 3p)     0.00005       0.57959
   9    C  1  py     Val( 2p)     0.99864      -0.10719
  10    C  1  py     Ryd( 4p)     0.00001       1.33915
  11    C  1  py     Ryd( 3p)     0.00005       0.57959
  12    C  1  pz     Val( 2p)     1.19916       0.06026
  13    C  1  pz     Ryd( 4p)     0.00090       1.71655
  14    C  1  pz     Ryd( 3p)     0.00022       1.63529
  15    C  1  dxy    Ryd( 3d)     0.00000       1.48988
  16    C  1  dxy    Ryd( 4d)     0.00000       2.38120
  17    C  1  dxz    Ryd( 3d)     0.00045       2.42531
  18    C  1  dxz    Ryd( 4d)     0.00003       2.38332
  19    C  1  dyz    Ryd( 3d)     0.00045       2.42531
  20    C  1  dyz    Ryd( 4d)     0.00003       2.38332
  21    C  1  dx2y2  Ryd( 3d)     0.00000       1.48988
  22    C  1  dx2y2  Ryd( 4d)     0.00000       2.38120
  23    C  1  dz2    Ryd( 3d)     0.00174       3.68451
  24    C  1  dz2    Ryd( 4d)     0.00004       4.34881
  25    C  1  f(0)   Ryd( 4f)     0.00208       3.91233
  26    C  1  f(c1)  Ryd( 4f)     0.00075       3.14255
  27    C  1  f(s1)  Ryd( 4f)     0.00075       3.14255
  28    C  1  f(c2)  Ryd( 4f)     0.00000       2.94931
  29    C  1  f(s2)  Ryd( 4f)     0.00000       2.94931
  30    C  1  f(c3)  Ryd( 4f)     0.00000       2.73569
  31    C  1  f(s3)  Ryd( 4f)     0.00000       2.73569

  32    C  2  s      Cor( 1s)     1.99999     -10.23559
  33    C  2  s      Val( 2s)     1.03875      -0.10744
  34    C  2  s      Ryd( 3s)     0.00374       0.96343
  35    C  2  s      Ryd( 4s)     0.00010       8.30533
  36    C  2  s      Ryd( 5s)     0.00000      12.40886
  37    C  2  px     Val( 2p)     0.99864      -0.10719
  38    C  2  px     Ryd( 4p)     0.00001       1.33915
  39    C  2  px     Ryd( 3p)     0.00005       0.57959
  40    C  2  py     Val( 2p)     0.99864      -0.10719
  41    C  2  py     Ryd( 4p)     0.00001       1.33915
  42    C  2  py     Ryd( 3p)     0.00005       0.57959
  43    C  2  pz     Val( 2p)     1.19916       0.06026
  44    C  2  pz     Ryd( 4p)     0.00090       1.71655
  45    C  2  pz     Ryd( 3p)     0.00022       1.63529
  46    C  2  dxy    Ryd( 3d)     0.00000       1.48988
  47    C  2  dxy    Ryd( 4d)     0.00000       2.38120
  48    C  2  dxz    Ryd( 3d)     0.00045       2.42531
  49    C  2  dxz    Ryd( 4d)     0.00003       2.38332
  50    C  2  dyz    Ryd( 3d)     0.00045       2.42531
  51    C  2  dyz    Ryd( 4d)     0.00003       2.38332
  52    C  2  dx2y2  Ryd( 3d)     0.00000       1.48988
  53    C  2  dx2y2  Ryd( 4d)     0.00000       2.38120
  54    C  2  dz2    Ryd( 3d)     0.00174       3.68451
  55    C  2  dz2    Ryd( 4d)     0.00004       4.34881
  56    C  2  f(0)   Ryd( 4f)     0.00208       3.91233
  57    C  2  f(c1)  Ryd( 4f)     0.00075       3.14255
  58    C  2  f(s1)  Ryd( 4f)     0.00075       3.14255
  59    C  2  f(c2)  Ryd( 4f)     0.00000       2.94931
  60    C  2  f(s2)  Ryd( 4f)     0.00000       2.94931
  61    C  2  f(c3)  Ryd( 4f)     0.00000       2.73569
  62    C  2  f(s3)  Ryd( 4f)     0.00000       2.73569

  63    H  3  s      Val( 1s)     0.75180       0.04937
  64    H  3  s      Ryd( 2s)     0.00060       0.88152
  65    H  3  s      Ryd( 3s)     0.00036       1.69989
  66    H  3  px     Ryd( 2p)     0.00007       2.05646
  67    H  3  py     Ryd( 2p)     0.00007       2.05646
  68    H  3  pz     Ryd( 2p)     0.00053       2.84533

  69    H  4  s      Val( 1s)     0.75180       0.04937
  70    H  4  s      Ryd( 2s)     0.00060       0.88152
  71    H  4  s      Ryd( 3s)     0.00036       1.69990
  72    H  4  px     Ryd( 2p)     0.00007       2.05646
  73    H  4  py     Ryd( 2p)     0.00007       2.05646
  74    H  4  pz     Ryd( 2p)     0.00053       2.84533


 Summary of Natural Population Analysis:

                                     Natural Population
             Natural    ---------------------------------------------
  Atom No    Charge        Core      Valence    Rydberg      Total
 --------------------------------------------------------------------
    C  1   -0.24657      1.99999     4.23520    0.01138     6.24657
    C  2   -0.24657      1.99999     4.23520    0.01138     6.24657
    H  3    0.24657      0.00000     0.75180    0.00163     0.75343
    H  4    0.24657      0.00000     0.75180    0.00163     0.75343
 ====================================================================
 * Total *  0.00000      3.99998     9.97400    0.02602    14.00000

                                 Natural Population
 ---------------------------------------------------------
   Core                       3.99998 ( 99.9996% of    4)
   Valence                    9.97400 ( 99.7400% of   10)
   Natural Minimal Basis     13.97398 ( 99.8141% of   14)
   Natural Rydberg Basis      0.02602 (  0.1859% of   14)
 ---------------------------------------------------------

    Atom No         Natural Electron Configuration
 ----------------------------------------------------------------------------
      C  1      [core]2s( 1.04)2p( 3.20)
      C  2      [core]2s( 1.04)2p( 3.20)
      H  3            1s( 0.75)
      H  4            1s( 0.75)


 Wiberg bond index matrix in the NAO basis:

     Atom    1       2       3       4
     ---- ------  ------  ------  ------
   1.  C  0.0000  2.9992  0.9270  0.0082
   2.  C  2.9992  0.0000  0.0082  0.9270
   3.  H  0.9270  0.0082  0.0000  0.0058
   4.  H  0.0082  0.9270  0.0058  0.0000


 Wiberg bond index, Totals by atom:

     Atom    1
     ---- ------
   1.  C  3.9344
   2.  C  3.9344
   3.  H  0.9410
   4.  H  0.9410


 NBI: Natural Binding Index (NCU strength parameters)

     Atom    1       2       3       4
     ---- ------  ------  ------  ------
   1.  C  0.0000  1.7318  0.9628  0.0908
   2.  C  1.7318  0.0000  0.0908  0.9628
   3.  H  0.9628  0.0908  0.0000  0.0759
   4.  H  0.0908  0.9628  0.0759  0.0000


 NATURAL BOND ORBITAL ANALYSIS:

                            Occupancies       Lewis Structure    Low   High
         Max    Occ     -------------------  -----------------   occ   occ
  Cycle  Ctr   Thresh    Lewis   non-Lewis     CR  BD  nC  LP    (L)   (NL)
 ============================================================================
    1     2     1.90    13.97716   0.02284      2   5   0   0     0      0
 ----------------------------------------------------------------------------

 Structure accepted: No low occupancy Lewis orbitals

 -------------------------------------------------------
   Core                      3.99998 (100.000% of   4)
   Valence Lewis             9.97718 ( 99.772% of  10)
  ==================      =============================
   Total Lewis              13.97716 ( 99.837% of  14)
  -----------------------------------------------------
   Valence non-Lewis         0.01523 (  0.109% of  14)
   Rydberg non-Lewis         0.00761 (  0.054% of  14)
  ==================      =============================
   Total non-Lewis           0.02284 (  0.163% of  14)
 -------------------------------------------------------


     (Occupancy)   Bond orbital / Coefficients / Hybrids
 ------------------ Lewis ------------------------------------------------------
   1. (1.99999) CR ( 1) C  1            s(100.00%)
                                         1.0000  0.0000  0.0000  0.0000  0.0000
                                         0.0000  0.0000  0.0000  0.0000  0.0000
                                         0.0000  0.0000  0.0000  0.0000  0.0000
                                         0.0000  0.0000  0.0000  0.0000  0.0000
                                         0.0000  0.0000  0.0000  0.0000  0.0000
                                         0.0000  0.0000  0.0000  0.0000  0.0000
                                         0.0000
   2. (1.99999) CR ( 1) C  2            s(100.00%)
                                         1.0000  0.0000  0.0000  0.0000  0.0000
                                         0.0000  0.0000  0.0000  0.0000  0.0000
                                         0.0000  0.0000  0.0000  0.0000  0.0000
                                         0.0000  0.0000  0.0000  0.0000  0.0000
                                         0.0000  0.0000  0.0000  0.0000  0.0000
                                         0.0000  0.0000  0.0000  0.0000  0.0000
                                         0.0000
   3. (1.99986) BD ( 1) C  1- C  2
               ( 50.00%)   0.7071* C  1 s(  0.00%)p 1.00( 99.88%)d 0.00(  0.05%)
                                                  f 0.00(  0.08%)
                                         0.0000  0.0000 -0.0000 -0.0000  0.0000
                                         0.9984 -0.0027 -0.0071 -0.0441  0.0001
                                         0.0003  0.0000 -0.0000  0.0000 -0.0000
                                        -0.0000  0.0212  0.0052 -0.0009 -0.0002
                                         0.0000  0.0000 -0.0000 -0.0000  0.0000
                                         0.0274 -0.0012 -0.0000  0.0000 -0.0000
                                        -0.0000
               ( 50.00%)   0.7071* C  2 s(  0.00%)p 1.00( 99.88%)d 0.00(  0.05%)
                                                  f 0.00(  0.08%)
                                         0.0000  0.0000 -0.0000  0.0000 -0.0000
                                         0.9984 -0.0027 -0.0071 -0.0441  0.0001
                                         0.0003 -0.0000  0.0000 -0.0000  0.0000
                                         0.0000 -0.0212 -0.0052  0.0009  0.0002
                                        -0.0000 -0.0000 -0.0000  0.0000 -0.0000
                                         0.0274 -0.0012 -0.0000  0.0000 -0.0000
                                        -0.0000
   4. (1.99986) BD ( 2) C  1- C  2
               ( 50.00%)   0.7071* C  1 s(  0.00%)p 1.00( 99.88%)d 0.00(  0.05%)
                                                  f 0.00(  0.08%)
                                         0.0000 -0.0000  0.0000  0.0000 -0.0000
                                         0.0441 -0.0001 -0.0003  0.9984 -0.0027
                                        -0.0071 -0.0000  0.0000 -0.0000 -0.0000
                                        -0.0000  0.0009  0.0002  0.0212  0.0052
                                        -0.0000 -0.0000  0.0000  0.0000 -0.0000
                                         0.0012  0.0274  0.0000 -0.0000 -0.0000
                                         0.0000
               ( 50.00%)   0.7071* C  2 s(  0.00%)p 1.00( 99.88%)d 0.00(  0.05%)
                                                  f 0.00(  0.08%)
                                         0.0000 -0.0000  0.0000  0.0000  0.0000
                                         0.0441 -0.0001 -0.0003  0.9984 -0.0027
                                        -0.0071  0.0000 -0.0000  0.0000  0.0000
                                         0.0000 -0.0009 -0.0002 -0.0212 -0.0052
                                         0.0000  0.0000  0.0000  0.0000  0.0000
                                         0.0012  0.0274  0.0000  0.0000 -0.0000
                                         0.0000
   5. (1.99354) BD ( 3) C  1- C  2
               ( 50.00%)   0.7071* C  1 s( 53.16%)p 0.88( 46.62%)d 0.00(  0.13%)
                                                  f 0.00(  0.10%)
                                         0.0000  0.7284 -0.0325 -0.0046 -0.0000
                                        -0.0000  0.0000  0.0000  0.0000 -0.0000
                                        -0.0000  0.6825 -0.0160  0.0076  0.0000
                                         0.0000 -0.0000 -0.0000  0.0000  0.0000
                                        -0.0000  0.0000 -0.0356 -0.0033  0.0314
                                        -0.0000  0.0000 -0.0000 -0.0000  0.0000
                                         0.0000
               ( 50.00%)   0.7071* C  2 s( 53.16%)p 0.88( 46.62%)d 0.00(  0.13%)
                                                  f 0.00(  0.10%)
                                         0.0000  0.7284 -0.0325 -0.0046 -0.0000
                                        -0.0000  0.0000  0.0000  0.0000 -0.0000
                                        -0.0000 -0.6825  0.0160 -0.0076 -0.0000
                                        -0.0000  0.0000  0.0000 -0.0000 -0.0000
                                        -0.0000  0.0000 -0.0356 -0.0033 -0.0314
                                        -0.0000  0.0000  0.0000 -0.0000  0.0000
                                         0.0000
   6. (1.99196) BD ( 1) C  1- H  3
               ( 62.40%)   0.7899* C  1 s( 46.79%)p 1.13( 53.08%)d 0.00(  0.04%)
                                                  f 0.00(  0.08%)
                                         0.0000  0.6836  0.0254  0.0042  0.0000
                                        -0.0000  0.0000  0.0000  0.0000 -0.0000
                                        -0.0000 -0.7283 -0.0163 -0.0095  0.0000
                                         0.0000 -0.0000 -0.0000  0.0000 -0.0000
                                        -0.0000  0.0000 -0.0209 -0.0035 -0.0279
                                        -0.0000  0.0000  0.0000 -0.0000  0.0000
                                        -0.0000
               ( 37.60%)   0.6132* H  3 s( 99.95%)p 0.00(  0.05%)
                                         0.9997 -0.0025 -0.0008  0.0000  0.0000
                                         0.0232
   7. (1.99196) BD ( 1) C  2- H  4
               ( 62.40%)   0.7899* C  2 s( 46.79%)p 1.13( 53.08%)d 0.00(  0.04%)
                                                  f 0.00(  0.08%)
                                         0.0000  0.6836  0.0254  0.0042  0.0000
                                        -0.0000  0.0000  0.0000  0.0000 -0.0000
                                        -0.0000  0.7283  0.0163  0.0095 -0.0000
                                        -0.0000  0.0000  0.0000 -0.0000 -0.0000
                                        -0.0000  0.0000 -0.0209 -0.0035  0.0279
                                        -0.0000  0.0000 -0.0000  0.0000  0.0000
                                         0.0000
               ( 37.60%)   0.6132* H  4 s( 99.95%)p 0.00(  0.05%)
                                         0.9997 -0.0025 -0.0008  0.0000  0.0000
                                        -0.0232
 ---------------- non-Lewis ----------------------------------------------------
   8. (0.00000) BD*( 1) C  1- C  2
               ( 50.00%)   0.7071* C  1 s(  0.00%)p 1.00( 99.88%)d 0.00(  0.05%)
                                                  f 0.00(  0.08%)
               ( 50.00%)  -0.7071* C  2 s(  0.00%)p 1.00( 99.88%)d 0.00(  0.05%)
                                                  f 0.00(  0.08%)
   9. (0.00000) BD*( 2) C  1- C  2
               ( 50.00%)   0.7071* C  1 s(  0.00%)p 1.00( 99.88%)d 0.00(  0.05%)
                                                  f 0.00(  0.08%)
               ( 50.00%)  -0.7071* C  2 s(  0.00%)p 1.00( 99.88%)d 0.00(  0.05%)
                                                  f 0.00(  0.08%)
  10. (0.00492) BD*( 3) C  1- C  2
               ( 50.00%)   0.7071* C  1 s( 53.16%)p 0.88( 46.62%)d 0.00(  0.13%)
                                                  f 0.00(  0.10%)
                                         0.0000  0.7284 -0.0325 -0.0046 -0.0000
                                        -0.0000  0.0000  0.0000  0.0000 -0.0000
                                        -0.0000  0.6825 -0.0160  0.0076  0.0000
                                         0.0000 -0.0000 -0.0000  0.0000  0.0000
                                        -0.0000  0.0000 -0.0356 -0.0033  0.0314
                                        -0.0000  0.0000 -0.0000 -0.0000  0.0000
                                         0.0000
               ( 50.00%)  -0.7071* C  2 s( 53.16%)p 0.88( 46.62%)d 0.00(  0.13%)
                                                  f 0.00(  0.10%)
                                         0.0000  0.7284 -0.0325 -0.0046 -0.0000
                                        -0.0000  0.0000  0.0000  0.0000 -0.0000
                                        -0.0000 -0.6825  0.0160 -0.0076 -0.0000
                                        -0.0000  0.0000  0.0000 -0.0000 -0.0000
                                        -0.0000  0.0000 -0.0356 -0.0033 -0.0314
                                        -0.0000  0.0000  0.0000 -0.0000  0.0000
                                         0.0000
  11. (0.00516) BD*( 1) C  1- H  3
               ( 37.60%)   0.6132* C  1 s( 46.79%)p 1.13( 53.08%)d 0.00(  0.04%)
                                                  f 0.00(  0.08%)
                                         0.0000 -0.6836 -0.0254 -0.0042 -0.0000
                                         0.0000 -0.0000 -0.0000 -0.0000  0.0000
                                         0.0000  0.7283  0.0163  0.0095 -0.0000
                                        -0.0000  0.0000  0.0000 -0.0000  0.0000
                                         0.0000 -0.0000  0.0209  0.0035  0.0279
                                         0.0000 -0.0000 -0.0000  0.0000 -0.0000
                                         0.0000
               ( 62.40%)  -0.7899* H  3 s( 99.95%)p 0.00(  0.05%)
                                        -0.9997  0.0025  0.0008 -0.0000 -0.0000
                                        -0.0232
  12. (0.00516) BD*( 1) C  2- H  4
               ( 37.60%)   0.6132* C  2 s( 46.79%)p 1.13( 53.08%)d 0.00(  0.04%)
                                                  f 0.00(  0.08%)
                                         0.0000 -0.6836 -0.0254 -0.0042 -0.0000
                                         0.0000 -0.0000 -0.0000 -0.0000  0.0000
                                         0.0000 -0.7283 -0.0163 -0.0095  0.0000
                                         0.0000 -0.0000 -0.0000  0.0000  0.0000
                                         0.0000 -0.0000  0.0209  0.0035 -0.0279
                                         0.0000 -0.0000  0.0000 -0.0000 -0.0000
                                        -0.0000
               ( 62.40%)  -0.7899* H  4 s( 99.95%)p 0.00(  0.05%)
                                        -0.9997  0.0025  0.0008 -0.0000 -0.0000
                                         0.0232
  13. (0.00260) RY ( 1) C  1            s( 80.83%)p 0.20( 16.43%)d 0.02(  1.26%)
                                                  f 0.02(  1.48%)
                                         0.0000  0.0110  0.8895 -0.1304 -0.0000
                                        -0.0000  0.0000  0.0000  0.0000 -0.0000
                                        -0.0000  0.0411  0.3812 -0.1317  0.0000
                                         0.0000  0.0000  0.0000 -0.0000  0.0000
                                         0.0000 -0.0000 -0.0810 -0.0777 -0.1216
                                         0.0000 -0.0000 -0.0000 -0.0000 -0.0000
                                         0.0000
  14. (0.00000) RY ( 2) C  1            s(  5.16%)p 4.83( 24.93%)d11.69( 60.31%)
                                                  f 1.86(  9.60%)
  15. (0.00000) RY ( 3) C  1            s(  3.37%)p 7.79( 26.24%)d19.64( 66.20%)
                                                  f 1.24(  4.19%)
  16. (0.00000) RY ( 4) C  1            s( 19.78%)p 1.38( 27.24%)d 1.18( 23.29%)
                                                  f 1.50( 29.68%)
  17. (0.00000) RY ( 5) C  1            s( 83.43%)p 0.14( 12.01%)d 0.05(  3.88%)
                                                  f 0.01(  0.69%)
  18. (0.00000) RY ( 6) C  1            s( 75.53%)p 0.06(  4.59%)d 0.22( 16.96%)
                                                  f 0.04(  2.92%)
  19. (0.00000) RY ( 7) C  1            s( 17.89%)p 2.67( 47.73%)d 0.14(  2.48%)
                                                  f 1.78( 31.91%)
  20. (0.00000) RY ( 8) C  1            s( 14.07%)p 2.92( 41.13%)d 1.81( 25.45%)
                                                  f 1.38( 19.36%)
  21. (0.00000) RY ( 9) C  1            s(  0.00%)p 0.00(  0.00%)d 1.00( 98.49%)
                                                  f 0.02(  1.51%)
  22. (0.00000) RY (10) C  1            s(  0.00%)p 1.00( 65.64%)d 0.49( 32.24%)
                                                  f 0.03(  2.12%)
  23. (0.00000) RY (11) C  1            s(  0.00%)p 1.00( 67.21%)d 0.42( 28.18%)
                                                  f 0.07(  4.61%)
  24. (0.00000) RY (12) C  1            s(  0.00%)p 1.00( 39.12%)d 1.46( 57.29%)
                                                  f 0.09(  3.58%)
  25. (0.00000) RY (13) C  1            s(  0.00%)p 1.00( 21.92%)d 3.54( 77.56%)
                                                  f 0.02(  0.52%)
  26. (0.00000) RY (14) C  1            s(  0.00%)p 1.00( 14.06%)d 6.00( 84.39%)
                                                  f 0.11(  1.55%)
  27. (0.00000) RY (15) C  1            s(  0.00%)p 1.00( 43.70%)d 1.27( 55.63%)
                                                  f 0.02(  0.67%)
  28. (0.00000) RY (16) C  1            s(  0.00%)p 1.00( 27.79%)d 0.97( 26.99%)
                                                  f 1.63( 45.23%)
  29. (0.00000) RY (17) C  1            s(  0.00%)p 1.00( 74.58%)d 0.14( 10.34%)
                                                  f 0.20( 15.08%)
  30. (0.00000) RY (18) C  1            s(  0.00%)p 1.00( 39.51%)d 0.29( 11.59%)
                                                  f 1.24( 48.90%)
  31. (0.00000) RY (19) C  1            s(  0.00%)p 1.00(  6.72%)d 2.33( 15.69%)
                                                  f11.55( 77.59%)
  32. (0.00000) RY (20) C  1            s(  0.00%)p 0.00(  0.00%)d 1.00( 99.94%)
                                                  f 0.00(  0.06%)
  33. (0.00000) RY (21) C  1            s(  0.00%)p 0.00(  0.00%)d 1.00(  1.57%)
                                                  f62.88( 98.43%)
  34. (0.00000) RY (22) C  1            s(  0.00%)p 0.00(  0.00%)d 0.00(  0.00%)
                                                  f 1.00(100.00%)
  35. (0.00000) RY (23) C  1            s(  0.00%)p 0.00(  0.00%)d 0.00(  0.00%)
                                                  f 1.00(100.00%)
  36. (0.00000) RY (24) C  1            s(  0.00%)p 0.00(  0.00%)d 1.00(100.00%)
                                                  f 0.00(  0.00%)
  37. (0.00000) RY (25) C  1            s(  0.00%)p 0.00(  0.00%)d 1.00(100.00%)
                                                  f 0.00(  0.00%)
  38. (0.00000) RY (26) C  1            s(  0.00%)p 0.00(  0.00%)d 0.00(  0.00%)
                                                  f 1.00(100.00%)
  39. (0.00260) RY ( 1) C  2            s( 80.83%)p 0.20( 16.43%)d 0.02(  1.26%)
                                                  f 0.02(  1.48%)
                                         0.0000  0.0110  0.8895 -0.1304 -0.0000
                                         0.0000 -0.0000  0.0000 -0.0000 -0.0000
                                        -0.0000 -0.0411 -0.3812  0.1317 -0.0000
                                        -0.0000  0.0000  0.0000 -0.0000 -0.0000
                                         0.0000  0.0000 -0.0810 -0.0777  0.1216
                                        -0.0000  0.0000 -0.0000 -0.0000 -0.0000
                                         0.0000
  40. (0.00000) RY ( 2) C  2            s(  5.16%)p 4.83( 24.93%)d11.69( 60.31%)
                                                  f 1.86(  9.60%)
  41. (0.00000) RY ( 3) C  2            s(  3.37%)p 7.79( 26.24%)d19.64( 66.20%)
                                                  f 1.24(  4.19%)
  42. (0.00000) RY ( 4) C  2            s( 56.12%)p 0.37( 20.99%)d 0.22( 12.14%)
                                                  f 0.19( 10.75%)
  43. (0.00000) RY ( 5) C  2            s( 48.64%)p 0.36( 17.50%)d 0.38( 18.61%)
                                                  f 0.31( 15.25%)
  44. (0.00000) RY ( 6) C  2            s( 32.76%)p 1.55( 50.89%)d 0.49( 16.21%)
                                                  f 0.00(  0.14%)
  45. (0.00000) RY ( 7) C  2            s( 27.31%)p 0.75( 20.61%)d 0.09(  2.39%)
                                                  f 1.82( 49.69%)
  46. (0.00000) RY ( 8) C  2            s( 45.86%)p 0.50( 22.72%)d 0.50( 22.71%)
                                                  f 0.19(  8.72%)
  47. (0.00000) RY ( 9) C  2            s(  0.00%)p 0.00(  0.00%)d 1.00( 83.47%)
                                                  f 0.20( 16.53%)
  48. (0.00000) RY (10) C  2            s(  0.00%)p 1.00(  5.56%)d16.07( 89.40%)
                                                  f 0.91(  5.04%)
  49. (0.00000) RY (11) C  2            s(  0.00%)p 1.00( 53.82%)d 0.82( 43.95%)
                                                  f 0.04(  2.23%)
  50. (0.00000) RY (12) C  2            s(  0.00%)p 1.00( 69.05%)d 0.12(  8.04%)
                                                  f 0.33( 22.91%)
  51. (0.00000) RY (13) C  2            s(  0.00%)p 1.00( 28.18%)d 2.45( 68.91%)
                                                  f 0.10(  2.92%)
  52. (0.00000) RY (14) C  2            s(  0.00%)p 1.00( 37.45%)d 1.45( 54.38%)
                                                  f 0.22(  8.18%)
  53. (0.00000) RY (15) C  2            s(  0.00%)p 1.00( 45.87%)d 0.19(  8.55%)
                                                  f 0.99( 45.58%)
  54. (0.00000) RY (16) C  2            s(  0.00%)p 1.00( 27.26%)d 0.74( 20.06%)
                                                  f 1.93( 52.68%)
  55. (0.00000) RY (17) C  2            s(  0.00%)p 1.00( 53.58%)d 0.05(  2.64%)
                                                  f 0.82( 43.78%)
  56. (0.00000) RY (18) C  2            s(  0.00%)p 1.00(  9.40%)d 9.62( 90.44%)
                                                  f 0.02(  0.16%)
  57. (0.00000) RY (19) C  2            s(  0.00%)p 1.00( 70.07%)d 0.19( 13.56%)
                                                  f 0.23( 16.37%)
  58. (0.00000) RY (20) C  2            s(  0.00%)p 0.00(  0.00%)d 1.00( 30.68%)
                                                  f 2.26( 69.32%)
  59. (0.00000) RY (21) C  2            s(  0.00%)p 0.00(  0.00%)d 1.00( 85.85%)
                                                  f 0.16( 14.15%)
  60. (0.00000) RY (22) C  2            s(  0.00%)p 0.00(  0.00%)d 0.00(  0.00%)
                                                  f 1.00(100.00%)
  61. (0.00000) RY (23) C  2            s(  0.00%)p 0.00(  0.00%)d 0.00(  0.00%)
                                                  f 1.00(100.00%)
  62. (0.00000) RY (24) C  2            s(  0.00%)p 0.00(  0.00%)d 1.00(100.00%)
  63. (0.00000) RY (25) C  2            s(  0.00%)p 0.00(  0.00%)d 1.00(100.00%)
  64. (0.00000) RY (26) C  2            s(  0.00%)p 0.00(  0.00%)d 0.00(  0.00%)
                                                  f 1.00(100.00%)
  65. (0.00065) RY ( 1) H  3            s( 91.06%)p 0.10(  8.94%)
                                        -0.0045  0.9431  0.1457  0.0000  0.0000
                                         0.2990
  66. (0.00040) RY ( 2) H  3            s( 90.99%)p 0.10(  9.01%)
                                        -0.0068 -0.2379  0.9237 -0.0000 -0.0000
                                         0.3002
  67. (0.00007) RY ( 3) H  3            s(  0.00%)p 1.00(100.00%)
  68. (0.00007) RY ( 4) H  3            s(  0.00%)p 1.00(100.00%)
  69. (0.00000) RY ( 5) H  3            s( 18.00%)p 4.56( 82.00%)
  70. (0.00065) RY ( 1) H  4            s( 91.06%)p 0.10(  8.94%)
                                        -0.0045  0.9431  0.1457 -0.0000 -0.0000
                                        -0.2990
  71. (0.00040) RY ( 2) H  4            s( 90.99%)p 0.10(  9.01%)
                                        -0.0068 -0.2379  0.9237  0.0000  0.0000
                                        -0.3002
  72. (0.00007) RY ( 3) H  4            s(  0.00%)p 1.00(100.00%)
  73. (0.00007) RY ( 4) H  4            s(  0.00%)p 1.00(100.00%)
  74. (0.00000) RY ( 5) H  4            s( 18.00%)p 4.56( 82.00%)


 NHO DIRECTIONALITY AND BOND BENDING (deviation from line of nuclear centers at
                                      the position of maximum hybrid amplitude)

         [Thresholds for printing:  angular deviation  >  1.0 degree]
                                    p- or d-character  > 25.0%
                                    orbital occupancy  >  0.10e

                        Line of Centers        Hybrid 1             Hybrid 2
                        ---------------  -------------------  ------------------
           NBO            Theta   Phi    Theta   Phi    Dev   Theta   Phi    Dev
 ===============================================================================
   3. BD ( 1) C  1- C  2    0.0    0.0    89.1  357.5  89.1    90.9  357.5  89.1
   4. BD ( 2) C  1- C  2    0.0    0.0    89.1  267.5  89.1    90.9  267.5  89.1


 SECOND ORDER PERTURBATION THEORY ANALYSIS OF FOCK MATRIX IN NBO BASIS

     Threshold for printing:   0.50 kcal/mol
                                                          E(2) E(NL)-E(L) F(L,NL)
      Donor (L) NBO              Acceptor (NL) NBO      kcal/mol   a.u.    a.u.
 ===============================================================================

 within unit  1
    5. BD ( 3) C  1- C  2      11. BD*( 1) C  1- H  3      1.72    1.14   0.040
    5. BD ( 3) C  1- C  2      12. BD*( 1) C  2- H  4      1.72    1.14   0.040
    6. BD ( 1) C  1- H  3      10. BD*( 3) C  1- C  2      3.25    1.64   0.065
    6. BD ( 1) C  1- H  3      12. BD*( 1) C  2- H  4      2.66    0.98   0.046
    6. BD ( 1) C  1- H  3      16. RY ( 4) C  1            0.55    5.45   0.049
    6. BD ( 1) C  1- H  3      18. RY ( 6) C  1            0.64   13.67   0.084
    6. BD ( 1) C  1- H  3      20. RY ( 8) C  1            0.86    4.40   0.055
    6. BD ( 1) C  1- H  3      39. RY ( 1) C  2            3.41    1.85   0.071
    6. BD ( 1) C  1- H  3      40. RY ( 2) C  2            0.66    3.32   0.042
    7. BD ( 1) C  2- H  4      10. BD*( 3) C  1- C  2      3.25    1.64   0.065
    7. BD ( 1) C  2- H  4      11. BD*( 1) C  1- H  3      2.66    0.98   0.046
    7. BD ( 1) C  2- H  4      13. RY ( 1) C  1            3.41    1.85   0.071
    7. BD ( 1) C  2- H  4      14. RY ( 2) C  1            0.66    3.32   0.042
    7. BD ( 1) C  2- H  4      17. RY ( 5) C  1            0.60    4.84   0.048
    7. BD ( 1) C  2- H  4      42. RY ( 4) C  2            0.72    3.61   0.046
    7. BD ( 1) C  2- H  4      44. RY ( 6) C  2            0.94    6.31   0.069
    7. BD ( 1) C  2- H  4      45. RY ( 7) C  2            0.54    6.02   0.051
    7. BD ( 1) C  2- H  4      46. RY ( 8) C  2            0.55    9.28   0.064


 NATURAL BOND ORBITALS (Summary):

                                                     Principal Delocalizations
           NBO                 Occupancy    Energy   (geminal,vicinal,remote)
 ===============================================================================
 Molecular unit  1  (C2H2)
 ------ Lewis --------------------------------------
    1. CR ( 1) C  1             1.99999   -10.23559
    2. CR ( 1) C  2             1.99999   -10.23559
    3. BD ( 1) C  1- C  2       1.99986    -0.30781
    4. BD ( 2) C  1- C  2       1.99986    -0.30781
    5. BD ( 3) C  1- C  2       1.99354    -0.72639  11(g),12(g)
    6. BD ( 1) C  1- H  3       1.99196    -0.55904  39(v),10(g),12(v),20(g)
                                                     40(v),18(g),16(g)
    7. BD ( 1) C  2- H  4       1.99196    -0.55904  13(v),10(g),11(v),44(g)
                                                     42(g),14(v),17(v),46(g)
                                                     45(g)
 ------ non-Lewis ----------------------------------
    8. BD*( 1) C  1- C  2       0.00000     0.09295
    9. BD*( 2) C  1- C  2       0.00000     0.09295
   10. BD*( 3) C  1- C  2       0.00492     1.07721
   11. BD*( 1) C  1- H  3       0.00516     0.41766
   12. BD*( 1) C  2- H  4       0.00516     0.41766
   13. RY ( 1) C  1             0.00260     1.29196
   14. RY ( 2) C  1             0.00000     2.76484
   15. RY ( 3) C  1             0.00000     4.23306
   16. RY ( 4) C  1             0.00000     4.89475
   17. RY ( 5) C  1             0.00000     4.28576
   18. RY ( 6) C  1             0.00000    13.10662
   19. RY ( 7) C  1             0.00000     2.53357
   20. RY ( 8) C  1             0.00000     3.83711
   21. RY ( 9) C  1             0.00000     2.10130
   22. RY (10) C  1             0.00000     1.83055
   23. RY (11) C  1             0.00000     1.98233
   24. RY (12) C  1             0.00000     1.05259
   25. RY (13) C  1             0.00000     1.26742
   26. RY (14) C  1             0.00000     3.10175
   27. RY (15) C  1             0.00000     2.05306
   28. RY (16) C  1             0.00000     2.42806
   29. RY (17) C  1             0.00000     1.42498
   30. RY (18) C  1             0.00000     2.13929
   31. RY (19) C  1             0.00000     2.46028
   32. RY (20) C  1             0.00000     1.84614
   33. RY (21) C  1             0.00000     2.87294
   34. RY (22) C  1             0.00000     2.73569
   35. RY (23) C  1             0.00000     2.73569
   36. RY (24) C  1             0.00000     2.26426
   37. RY (25) C  1             0.00000     1.60682
   38. RY (26) C  1             0.00000     2.94931
   39. RY ( 1) C  2             0.00260     1.29196
   40. RY ( 2) C  2             0.00000     2.76484
   41. RY ( 3) C  2             0.00000     4.23307
   42. RY ( 4) C  2             0.00000     3.04645
   43. RY ( 5) C  2             0.00000     5.66926
   44. RY ( 6) C  2             0.00000     5.75588
   45. RY ( 7) C  2             0.00000     5.46182
   46. RY ( 8) C  2             0.00000     8.72439
   47. RY ( 9) C  2             0.00000     1.64372
   48. RY (10) C  2             0.00000     2.26947
   49. RY (11) C  2             0.00000     1.90014
   50. RY (12) C  2             0.00000     1.81512
   51. RY (13) C  2             0.00000     2.20022
   52. RY (14) C  2             0.00000     1.16585
   53. RY (15) C  2             0.00000     2.17024
   54. RY (16) C  2             0.00000     2.20644
   55. RY (17) C  2             0.00000     1.59350
   56. RY (18) C  2             0.00000     3.04043
   57. RY (19) C  2             0.00000     1.37890
   58. RY (20) C  2             0.00000     2.85306
   59. RY (21) C  2             0.00000     2.32361
   60. RY (22) C  2             0.00000     2.73569
   61. RY (23) C  2             0.00000     2.73569
   62. RY (24) C  2             0.00000     1.63671
   63. RY (25) C  2             0.00000     2.23437
   64. RY (26) C  2             0.00000     2.94931
   65. RY ( 1) H  3             0.00065     1.16668
   66. RY ( 2) H  3             0.00040     1.52393
   67. RY ( 3) H  3             0.00007     2.05646
   68. RY ( 4) H  3             0.00007     2.05646
   69. RY ( 5) H  3             0.00000     2.73173
   70. RY ( 1) H  4             0.00065     1.16668
   71. RY ( 2) H  4             0.00040     1.52393
   72. RY ( 3) H  4             0.00007     2.05646
   73. RY ( 4) H  4             0.00007     2.05646
   74. RY ( 5) H  4             0.00000     2.73173
          -------------------------------
                 Total Lewis   13.97716  ( 99.8369%)
           Valence non-Lewis    0.01523  (  0.1088%)
           Rydberg non-Lewis    0.00761  (  0.0543%)
          -------------------------------
               Total unit  1   14.00000  (100.0000%)
              Charge unit  1    0.00000

 $CHOOSE
   BOND T 1 2 S 1 3 S 2 4 END
 $END

 NBO analysis completed in 0.09 CPU seconds (0 wall seconds)
 Maximum scratch memory used by NBO was 512840 words (3.91 MB)
 Maximum scratch memory used by G16NBO was 16805 words (0.13 MB)

 Opening RunExU unformatted file "/home/oyanez/Gaussian/coms/Gau-164818.EUF"
 Read unf file /home/oyanez/Gaussian/coms/Gau-164818.EUF:
 Label Gaussian matrix elements                                         IVers= 1 NLab= 2 Version=ES64L-G16RevB.01
 Title 1_SiLi-0000 E=0.000000                                          
 NAtoms=     4 NBasis=    74 NBsUse=    74 ICharg=     0 Multip=     1 NE=    14 Len12L=8 Len4L=8 IOpCl= 0 ICGU= -1
 GAUSSIAN SCALARS                    NI= 1 NR= 1 NTot=       1 LenBuf=    2 NRI=1 N=    1000
 NPA CHARGES                         NI= 0 NR= 1 NTot=       4 LenBuf= 4000 NRI=1 N=       4
 Recovered energy= -77.2550886940     dipole=     -0.000000000000     -0.000000000000     -0.000000259528
 Leave Link  612 at Tue Oct 25 22:28:13 2022, MaxMem=  1342177280 cpu:               3.9 elap:               0.4
 (Enter /home/lmod/software/Binaries/g16/B.01/l701.exe)
 ... and contract with generalized density number  0.
 Compute integral first derivatives.
   4 Symmetry operations used in ECPInt.
 ECPInt:  NShTT=     465 NPrTT=    1428 LenC2=     466 LenP2D=    1332.
 LDataN:  DoStor=T MaxTD1= 7 Len=  274
 Leave Link  701 at Tue Oct 25 22:28:14 2022, MaxMem=  1342177280 cpu:               1.1 elap:               0.1
 (Enter /home/lmod/software/Binaries/g16/B.01/l702.exe)
 L702 exits ... SP integral derivatives will be done elsewhere.
 Leave Link  702 at Tue Oct 25 22:28:14 2022, MaxMem=  1342177280 cpu:               0.2 elap:               0.0
 (Enter /home/lmod/software/Binaries/g16/B.01/l703.exe)
 Integral derivatives from FoFJK, PRISM(SPDF).
 Compute integral first derivatives, UseDBF=F ICtDFT=           0.
 Calling FoFJK, ICntrl=      2127 FMM=F ISym2X=1 I1Cent= 0 IOpClX= 0 NMat=1 NMatS=1 NMatT=0.
 FoFJK:  IHMeth= 1 ICntrl=    2127 DoSepK=F KAlg= 0 I1Cent=           0 FoldK=F
 IRaf=         0 NMat=       1 IRICut=       1 DoRegI=T DoRafI=F ISym2E= 1 IDoP0=0 IntGTp=1.
 FoFCou: FMM=F IPFlag=           0 FMFlag=      100000 FMFlg1=         800
         NFxFlg=           0 DoJE=F BraDBF=F KetDBF=F FulRan=T
         wScrn=  0.000000 ICntrl=      2127 IOpCl=  0 I1Cent=           0 NGrid=           0
         NMat0=    1 NMatS0=      1 NMatT0=    0 NMatD0=    1 NMtDS0=    0 NMtDT0=    0
 Petite list used in FoFCou.
 Leave Link  703 at Tue Oct 25 22:28:14 2022, MaxMem=  1342177280 cpu:               4.1 elap:               0.4
 (Enter /home/lmod/software/Binaries/g16/B.01/l716.exe)
 Dipole        =-3.75881019D-20-1.31940150D-19-2.59528322D-07
 ***** Axes restored to original set *****
 -------------------------------------------------------------------
 Center     Atomic                   Forces (Hartrees/Bohr)
 Number     Number              X              Y              Z
 -------------------------------------------------------------------
      1        6          -0.000518258   -0.000000912    0.000000161
      2        6           0.000518354    0.000000912   -0.000000161
      3        1           0.018284620    0.000032161   -0.000005688
      4        1          -0.018284716   -0.000032161    0.000005688
 -------------------------------------------------------------------
 Cartesian Forces:  Max     0.018284716 RMS     0.007467695
 Leave Link  716 at Tue Oct 25 22:28:14 2022, MaxMem=  1342177280 cpu:               0.3 elap:               0.0
 (Enter /home/lmod/software/Binaries/g16/B.01/l103.exe)

 GradGradGradGradGradGradGradGradGradGradGradGradGradGradGradGradGradGrad
 Berny optimization.
 FormGI is forming the generalized inverse of G from B-inverse, IUseBI=4.
 Internal  Forces:  Max     0.018284745 RMS     0.011858119
 Search for a local minimum.
 Step number   1 out of a maximum of   20
 All quantities printed in internal units (Hartrees-Bohrs-Radians)
 RMS Force = .11858D-01 SwitMx=.10000D-02 MixMth= 1
 Mixed Optimization -- RFO/linear search
 Second derivative matrix not updated -- first step.
 The second derivative matrix:
                          R1        R2        R3        A1        A2
           R1           1.01961
           R2           0.00000   0.34812
           R3           0.00000   0.00000   0.34812
           A1           0.00000   0.00000   0.00000   0.00235
           A2           0.00000   0.00000   0.00000   0.00000   0.00235
           A3           0.00000   0.00000   0.00000   0.00000   0.00000
           A4           0.00000   0.00000   0.00000   0.00000   0.00000
                          A3        A4
           A3           0.00235
           A4           0.00000   0.00235
 ITU=  0
     Eigenvalues ---    0.00235   0.00235   0.00235   0.00235   0.34812
     Eigenvalues ---    0.34812   1.01961
 RFO step:  Lambda=-2.21749648D-03 EMin= 2.34805356D-03
 Linear search not attempted -- first point.
 Iteration  1 RMS(Cart)=  0.03287419 RMS(Int)=  0.00000000
 Iteration  2 RMS(Cart)=  0.00000000 RMS(Int)=  0.00000000
 ITry= 1 IFail=0 DXMaxC= 6.09D-02 DCOld= 1.00D+10 DXMaxT= 3.00D-01 DXLimC= 3.00D+00 Rises=F
 ClnCor:  largest displacement from symmetrization is 1.24D-09 for atom     1.
 Variable       Old X    -DE/DX   Delta X   Delta X   Delta X     New X
                                 (Linear)    (Quad)   (Total)
    R1        2.27864  -0.01777   0.00000  -0.01739  -0.01739   2.26125
    R2        2.05980  -0.01828   0.00000  -0.05219  -0.05219   2.00761
    R3        2.05981  -0.01828   0.00000  -0.05219  -0.05219   2.00761
    A1        3.14159  -0.00000   0.00000   0.00000   0.00000   3.14159
    A2        3.14159  -0.00000   0.00000  -0.00000  -0.00000   3.14159
    A3        3.14159   0.00000   0.00000   0.00000   0.00000   3.14159
    A4        3.14159  -0.00000   0.00000  -0.00000  -0.00000   3.14159
         Item               Value     Threshold  Converged?
 Maximum Force            0.018285     0.000450     NO 
 RMS     Force            0.011858     0.000300     NO 
 Maximum Displacement     0.060884     0.001800     NO 
 RMS     Displacement     0.032874     0.001200     NO 
 Predicted change in Energy=-1.115123D-03
 Lowest energy point so far.  Saving SCF results.
 GradGradGradGradGradGradGradGradGradGradGradGradGradGradGradGradGradGrad

 Leave Link  103 at Tue Oct 25 22:28:14 2022, MaxMem=  1342177280 cpu:               0.1 elap:               0.0
 (Enter /home/lmod/software/Binaries/g16/B.01/l202.exe)
                          Input orientation:                          
 ---------------------------------------------------------------------
 Center     Atomic      Atomic             Coordinates (Angstroms)
 Number     Number       Type             X           Y           Z
 ---------------------------------------------------------------------
      1          6           0        0.066800   -0.000895   -0.000614
      2          6           0        1.263400    0.001210   -0.000986
      3          1           0       -0.995581   -0.002764   -0.000283
      4          1           0        2.325781    0.003078   -0.001317
 ---------------------------------------------------------------------
                    Distance matrix (angstroms):
                    1          2          3          4
     1  C    0.000000
     2  C    1.196601   0.000000
     3  H    1.062383   2.258985   0.000000
     4  H    2.258985   1.062383   3.321368   0.000000
 Stoichiometry    C2H2
 Framework group  C*V[C*(HCCH)]
 Deg. of freedom     3
 Full point group                 C*V     NOp   4
 RotChk:  IX=0 Diff= 2.52D-16
 Largest Abelian subgroup         C2V     NOp   4
 Largest concise Abelian subgroup C1      NOp   1
                         Standard orientation:                         
 ---------------------------------------------------------------------
 Center     Atomic      Atomic             Coordinates (Angstroms)
 Number     Number       Type             X           Y           Z
 ---------------------------------------------------------------------
      1          6           0        0.000000    0.000000   -0.598301
      2          6           0       -0.000000   -0.000000    0.598301
      3          1           0        0.000000    0.000000   -1.660684
      4          1           0       -0.000000   -0.000000    1.660684
 ---------------------------------------------------------------------
 Rotational constants (GHZ):           0.0000000          35.7157554          35.7157554
 Leave Link  202 at Tue Oct 25 22:28:14 2022, MaxMem=  1342177280 cpu:               0.1 elap:               0.0
 (Enter /home/lmod/software/Binaries/g16/B.01/l301.exe)
 Standard basis: def2TZVP (5D, 7F)
 Ernie: Thresh=  0.10000D-02 Tol=  0.10000D-05 Strict=F.
 There are    42 symmetry adapted cartesian basis functions of A1  symmetry.
 There are     6 symmetry adapted cartesian basis functions of A2  symmetry.
 There are    18 symmetry adapted cartesian basis functions of B1  symmetry.
 There are    18 symmetry adapted cartesian basis functions of B2  symmetry.
 There are    36 symmetry adapted basis functions of A1  symmetry.
 There are     6 symmetry adapted basis functions of A2  symmetry.
 There are    16 symmetry adapted basis functions of B1  symmetry.
 There are    16 symmetry adapted basis functions of B2  symmetry.
    74 basis functions,   118 primitive gaussians,    84 cartesian basis functions
     7 alpha electrons        7 beta electrons
       nuclear repulsion energy        24.8680324787 Hartrees.
 IExCor= 1009 DFT=T Ex+Corr=PBE1PBE ExCW=0 ScaHFX=  0.250000
 ScaDFX=  0.750000  0.750000  1.000000  1.000000 ScalE2=  1.000000  1.000000
 IRadAn=      5 IRanWt=     -1 IRanGd=            0 ICorTp=0 IEmpDi=  4
 NAtoms=    4 NActive=    4 NUniq=    4 SFac= 1.00D+00 NAtFMM=   60 NAOKFM=F Big=F
 Integral buffers will be    131072 words long.
 Raffenetti 2 integral format.
 Two-electron integral symmetry is turned on.
 Leave Link  301 at Tue Oct 25 22:28:14 2022, MaxMem=  1342177280 cpu:               0.5 elap:               0.1
 (Enter /home/lmod/software/Binaries/g16/B.01/l302.exe)
 NPDir=0 NMtPBC=     1 NCelOv=     1 NCel=       1 NClECP=     1 NCelD=      1
         NCelK=      1 NCelE2=     1 NClLst=     1 CellRange=     0.0.
 One-electron integrals computed using PRISM.
 One-electron integral symmetry used in STVInt
   4 Symmetry operations used in ECPInt.
 ECPInt:  NShTT=     465 NPrTT=    1428 LenC2=     466 LenP2D=    1332.
 LDataN:  DoStor=T MaxTD1= 6 Len=  172
 NBasis=    74 RedAO= T EigKep=  2.95D-05  NBF=    36     6    16    16
 NBsUse=    74 1.00D-06 EigRej= -1.00D+00 NBFU=    36     6    16    16
 Precomputing XC quadrature grid using
 IXCGrd= 4 IRadAn=           5 IRanWt=          -1 IRanGd=           0 AccXCQ= 0.00D+00.
 Generated NRdTot=       0 NPtTot=           0 NUsed=           0 NTot=          32
 NSgBfM=    84    84    84    84    84 MxSgAt=     4 MxSgA2=     4.
 Leave Link  302 at Tue Oct 25 22:28:14 2022, MaxMem=  1342177280 cpu:               1.1 elap:               0.1
 (Enter /home/lmod/software/Binaries/g16/B.01/l303.exe)
 DipDrv:  MaxL=1.
 Leave Link  303 at Tue Oct 25 22:28:14 2022, MaxMem=  1342177280 cpu:               0.2 elap:               0.0
 (Enter /home/lmod/software/Binaries/g16/B.01/l401.exe)
 Initial guess from the checkpoint file:  "/home/oyanez/Gaussian/coms/Gau-164818.chk"
 B after Tr=    -0.000000   -0.000000    0.000000
         Rot=    1.000000   -0.000000    0.000000   -0.000000 Ang=   0.00 deg.
 Guess basis will be translated and rotated to current coordinates.
 JPrj=2 DoOrth=T DoCkMO=T.
 Initial guess orbital symmetries:
       Occupied  (SG) (SG) (SG) (SG) (SG) (PI) (PI)
       Virtual   (PI) (PI) (SG) (SG) (SG) (PI) (PI) (SG) (PI) (PI)
                 (SG) (SG) (SG) (DLTA) (DLTA) (SG) (PI) (PI) (SG)
                 (DLTA) (DLTA) (SG) (PI) (PI) (SG) (PI) (PI) (SG)
                 (PI) (PI) (SG) (SG) (PI) (PI) (SG) (PI) (PI) (DLTA)
                 (DLTA) (SG) (PHI) (PHI) (PI) (PI) (SG) (SG) (SG)
                 (PHI) (PHI) (DLTA) (DLTA) (PI) (PI) (DLTA) (DLTA)
                 (DLTA) (DLTA) (SG) (PI) (PI) (SG) (PI) (PI) (SG)
                 (SG) (SG) (SG)
 The electronic state of the initial guess is 1-SG.
 Generating alternative initial guess.
 ExpMin= 9.52D-02 ExpMax= 1.36D+04 ExpMxC= 4.63D+02 IAcc=3 IRadAn=         5 AccDes= 0.00D+00
 Harris functional with IExCor= 1009 and IRadAn=       5 diagonalized for initial guess.
 HarFok:  IExCor= 1009 AccDes= 0.00D+00 IRadAn=         5 IDoV= 1 UseB2=F ITyADJ=14
 ICtDFT=  3500011 ScaDFX=  1.000000  1.000000  1.000000  1.000000
 FoFCou: FMM=F IPFlag=           0 FMFlag=      100000 FMFlg1=           0
         NFxFlg=           0 DoJE=T BraDBF=F KetDBF=T FulRan=T
         wScrn=  0.000000 ICntrl=       500 IOpCl=  0 I1Cent=   200000004 NGrid=           0
         NMat0=    1 NMatS0=      1 NMatT0=    0 NMatD0=    1 NMtDS0=    0 NMtDT0=    0
 Petite list used in FoFCou.
 Harris En= -77.3283600680152    
 Leave Link  401 at Tue Oct 25 22:28:15 2022, MaxMem=  1342177280 cpu:               2.2 elap:               0.2
 (Enter /home/lmod/software/Binaries/g16/B.01/l502.exe)
 Keep R1 ints in memory in symmetry-blocked form, NReq=12959866.
[...]
 FoFJK:  IHMeth= 1 ICntrl=  100127 DoSepK=F KAlg= 0 I1Cent=           0 FoldK=F
 IRaf=         0 NMat=       1 IRICut=       1 DoRegI=T DoRafI=F ISym2E= 1 IDoP0=0 IntGTp=1.
 FoFCou: FMM=F IPFlag=           0 FMFlag=      100000 FMFlg1=         800
         NFxFlg=           0 DoJE=F BraDBF=F KetDBF=F FulRan=T
         wScrn=  0.000000 ICntrl=    100127 IOpCl=  0 I1Cent=           0 NGrid=           0
         NMat0=    1 NMatS0=      1 NMatT0=    0 NMatD0=    1 NMtDS0=    0 NMtDT0=    0
 Petite list used in FoFCou.
 Leave Link  703 at Tue Oct 25 22:28:23 2022, MaxMem=  1342177280 cpu:               8.9 elap:               0.9
 (Enter /home/lmod/software/Binaries/g16/B.01/l716.exe)
 Dipole        =-3.23006473D-17 3.97578346D-19 2.66453526D-15
 Polarizability= 1.45991279D+01 3.11949069D-17 1.45991279D+01
                 6.81957800D-13 6.20917781D-13 3.02900824D+01
 Full mass-weighted force constant matrix:
 Low frequencies ---   -9.3932   -9.3932   -0.0010   -0.0009   -0.0007  636.1867
 Low frequencies ---  636.1867  772.3082  772.3082
 Diagonal vibrational polarizability:
        4.8366788       4.8366788       0.2161915
 Harmonic frequencies (cm**-1), IR intensities (KM/Mole), Raman scattering
 activities (A**4/AMU), depolarization ratios for plane and unpolarized
 incident light, reduced masses (AMU), force constants (mDyne/A),
 and normal coordinates:
                      1                      2                      3
                     PIG                    PIG                    PIU
 Frequencies --    636.1867               636.1867               772.3082
 Red. masses --      1.5757                 1.5757                 1.0848
 Frc consts  --      0.3757                 0.3757                 0.3812
 IR Inten    --      0.0000                 0.0000               107.2002
  Atom  AN      X      Y      Z        X      Y      Z        X      Y      Z
     1   6    -0.16  -0.00  -0.00     0.00  -0.16  -0.00     0.00  -0.06   0.00
     2   6     0.16   0.00   0.00    -0.00   0.16  -0.00     0.00  -0.06  -0.00
     3   1     0.69   0.00  -0.00    -0.00   0.69   0.00    -0.00   0.70   0.00
     4   1    -0.69  -0.00   0.00     0.00  -0.69   0.00    -0.00   0.70  -0.00
                      4                      5                      6
                     PIU                    SGG                    SGU
 Frequencies --    772.3082              2084.9405              3426.8275
 Red. masses --      1.0848                 3.7790                 1.0848
 Frc consts  --      0.3812                 9.6786                 7.5057
 IR Inten    --    107.2002                 0.0000                94.3387
  Atom  AN      X      Y      Z        X      Y      Z        X      Y      Z
     1   6    -0.06  -0.00   0.00    -0.00   0.00   0.36    -0.00   0.00  -0.06
     2   6    -0.06  -0.00   0.00     0.00   0.00  -0.36    -0.00  -0.00  -0.06
     3   1     0.70   0.00  -0.00     0.00  -0.00   0.61     0.00  -0.00   0.70
     4   1     0.70   0.00  -0.00    -0.00  -0.00  -0.61     0.00   0.00   0.70
                      7
                     SGG
 Frequencies --   3528.0649
 Red. masses --      1.2331
 Frc consts  --      9.0434
 IR Inten    --      0.0000
  Atom  AN      X      Y      Z
     1   6     0.00   0.00  -0.10
     2   6    -0.00  -0.00   0.10
     3   1    -0.00  -0.00   0.70
     4   1     0.00   0.00  -0.70

 -------------------
 - Thermochemistry -
 -------------------
 Temperature   298.150 Kelvin.  Pressure   1.00000 Atm.
 Atom     1 has atomic number  6 and mass  12.00000
 Atom     2 has atomic number  6 and mass  12.00000
 Atom     3 has atomic number  1 and mass   1.00783
 Atom     4 has atomic number  1 and mass   1.00783
 Molecular mass:    26.01565 amu.
 Principal axes and moments of inertia in atomic units:
                           1         2         3
     Eigenvalues --     0.00000  50.61161  50.61161
           X           -0.00000   0.92302  -0.38476
           Y           -0.00000   0.38476   0.92302
           Z            1.00000   0.00000  -0.00000
 This molecule is a prolate symmetric top.
 Rotational symmetry number  2.
 Rotational temperature (Kelvin)      1.71134
 Rotational constant (GHZ):          35.658641
 Zero-point vibrational energy      70919.5 (Joules/Mol)
                                   16.95018 (Kcal/Mol)
 Vibrational temperatures:    915.33   915.33  1111.18  1111.18  2999.76
          (Kelvin)           4930.44  5076.10
 
 Zero-point correction=                           0.027012 (Hartree/Particle)
 Thermal correction to Energy=                    0.029828
 Thermal correction to Enthalpy=                  0.030773
 Thermal correction to Gibbs Free Energy=         0.008054
 Sum of electronic and zero-point Energies=            -77.229119
 Sum of electronic and thermal Energies=               -77.226302
 Sum of electronic and thermal Enthalpies=             -77.225358
 Sum of electronic and thermal Free Energies=          -77.248076
 
                     E (Thermal)             CV                S
                      KCal/Mol        Cal/Mol-Kelvin    Cal/Mol-Kelvin
 Total                   18.718              8.284             47.815
 Electronic               0.000              0.000              0.000
 Translational            0.889              2.981             35.704
 Rotational               0.592              1.987             10.864
 Vibrational             17.236              3.316              1.246
                       Q            Log10(Q)             Ln(Q)
 Total Bot       0.197364D-03         -3.704731         -8.530459
 Total V=0       0.524611D+09          8.719837         20.078167
 Vib (Bot)       0.434406D-12        -12.362104        -28.464797
 Vib (V=0)       0.115469D+01          0.062464          0.143828
 Electronic      0.100000D+01          0.000000          0.000000
 Translational   0.521562D+07          6.717306         15.467168
 Rotational      0.871098D+02          1.940067          4.467170
 
                                                        1_SiLi-0000 E=0.000000
                                                             IR Spectrum
 
     3   3                                               2                                                                           
     5   4                                               0                                               7    6                      
     2   2                                               8                                               7    3                      
     8   7                                               5                                               2    6                      
 
         X                                                                                               X                           
         X                                                                                               X                           
         X                                                                                               X                           
         X                                                                                               X                           
         X                                                                                               X                           
         X                                                                                               X                           
         X                                                                                               X                           
         X                                                                                               X                           
         X                                                                                               X                           
                                                                                                         X                           
                                                                                                         X                           
                                                                                                         X                           
                                                                                                         X                           
                                                                                                         X                           
                                                                                                         X                           
                                                                                                         X                           
                                                                                                         X                           
                                                                                                         X                           
                                                                                                         X                           
                                                                                                         X                           
 
 ***** Axes restored to original set *****
 -------------------------------------------------------------------
 Center     Atomic                   Forces (Hartrees/Bohr)
 Number     Number              X              Y              Z
 -------------------------------------------------------------------
      1        6          -0.000111992   -0.000000197    0.000000035
      2        6           0.000111992    0.000000197   -0.000000035
      3        1           0.000021469    0.000000038   -0.000000007
      4        1          -0.000021469   -0.000000038    0.000000007
 -------------------------------------------------------------------
 Cartesian Forces:  Max     0.000111992 RMS     0.000046553
 Force constants in Cartesian coordinates: 
                1             2             3             4             5 
      1  0.156047D+01
      2  0.266276D-02  0.466112D-01
      3 -0.470920D-03  0.000000D+00  0.466066D-01
      4 -0.114729D+01 -0.197293D-02  0.348921D-03  0.156047D+01
      5 -0.197293D-02 -0.256237D-01  0.000000D+00  0.266276D-02  0.466112D-01
      6  0.348921D-03  0.000000D+00 -0.256204D-01 -0.470920D-03  0.000000D+00
      7 -0.419580D+00 -0.696663D-03  0.123208D-03  0.640255D-02  0.683239D-05
      8 -0.696663D-03 -0.235056D-01  0.000000D+00  0.683239D-05  0.251813D-02
      9  0.123208D-03  0.000000D+00 -0.235044D-01 -0.120834D-05  0.000000D+00
     10  0.640255D-02  0.683239D-05 -0.120834D-05 -0.419580D+00 -0.696663D-03
     11  0.683239D-05  0.251813D-02  0.000000D+00 -0.696663D-03 -0.235056D-01
     12 -0.120834D-05  0.000000D+00  0.251812D-02  0.123208D-03  0.000000D+00
                6             7             8             9            10 
      6  0.466066D-01
      7 -0.120834D-05  0.413144D+00
      8  0.000000D+00  0.699991D-03  0.151779D-01
      9  0.251812D-02 -0.123796D-03  0.000000D+00  0.151767D-01
     10  0.123208D-03  0.331753D-04 -0.101602D-04  0.179688D-05  0.413144D+00
     11  0.000000D+00 -0.101602D-04  0.580958D-02  0.000000D+00  0.699991D-03
     12 -0.235044D-01  0.179688D-05  0.000000D+00  0.580960D-02 -0.123796D-03
               11            12 
     11  0.151779D-01
     12  0.000000D+00  0.151767D-01
 FormGI is forming the generalized inverse of G from B-inverse, IUseBI=4.
 Force constants in internal coordinates: 
                1             2             3             4             5 
      1  0.113446D+01
      2 -0.643572D-02  0.413145D+00
      3 -0.643572D-02 -0.331568D-04  0.413145D+00
      4  0.000000D+00  0.000000D+00  0.000000D+00  0.614102D-01
      5  0.000000D+00  0.000000D+00  0.000000D+00 -0.235130D-01  0.614102D-01
      6  0.000000D+00  0.000000D+00  0.000000D+00  0.000000D+00  0.000000D+00
      7  0.000000D+00  0.000000D+00  0.000000D+00  0.000000D+00  0.000000D+00
                6             7 
      6  0.614100D-01
      7 -0.235129D-01  0.614100D-01
 Leave Link  716 at Tue Oct 25 22:28:23 2022, MaxMem=  1342177280 cpu:               0.3 elap:               0.0
 (Enter /home/lmod/software/Binaries/g16/B.01/l103.exe)

 GradGradGradGradGradGradGradGradGradGradGradGradGradGradGradGradGradGrad
 Berny optimization.
 Red2BG is reusing G-inverse.
 Internal  Forces:  Max     0.000090523 RMS     0.000036088
 Search for a local minimum.
 Step number   1 out of a maximum of    2
 All quantities printed in internal units (Hartrees-Bohrs-Radians)
 Second derivative matrix not updated -- analytic derivatives used.
 The second derivative matrix:
                          R1        R2        R3        A1        A2
           R1           1.13446
           R2          -0.00644   0.41315
           R3          -0.00644  -0.00003   0.41315
           A1           0.00000  -0.00000   0.00000   0.06141
           A2          -0.00000  -0.00000   0.00000  -0.02351   0.06141
           A3          -0.00000   0.00000   0.00000  -0.00000   0.00000
           A4          -0.00000   0.00000  -0.00000   0.00000  -0.00000
                          A3        A4
           A3           0.06141
           A4          -0.02351   0.06141
 ITU=  0
     Eigenvalues ---    0.03790   0.03790   0.08492   0.08492   0.41300
     Eigenvalues ---    0.41318   1.13457
 Angle between quadratic step and forces=  23.63 degrees.
 Linear search not attempted -- first point.
 Iteration  1 RMS(Cart)=  0.00002199 RMS(Int)=  0.00000002
 Iteration  2 RMS(Cart)=  0.00000003 RMS(Int)=  0.00000001
 ITry= 1 IFail=0 DXMaxC= 3.96D-05 DCOld= 1.00D+10 DXMaxT= 3.00D-01 DXLimC= 3.00D+00 Rises=F
 ClnCor:  largest displacement from symmetrization is 3.87D-08 for atom     1.
 Variable       Old X    -DE/DX   Delta X   Delta X   Delta X     New X
                                 (Linear)    (Quad)   (Total)
    R1        2.26196   0.00009   0.00000   0.00008   0.00008   2.26204
    R2        2.01213  -0.00002   0.00000  -0.00005  -0.00005   2.01208
    R3        2.01213  -0.00002   0.00000  -0.00005  -0.00005   2.01208
    A1        3.14159   0.00000   0.00000   0.00000   0.00000   3.14159
    A2        3.14159   0.00000   0.00000   0.00000   0.00000   3.14159
    A3        3.14159  -0.00000   0.00000  -0.00000   0.00000   3.14159
    A4        3.14159  -0.00000   0.00000  -0.00000   0.00000   3.14159
         Item               Value     Threshold  Converged?
 Maximum Force            0.000091     0.000450     YES
 RMS     Force            0.000036     0.000300     YES
 Maximum Displacement     0.000040     0.001800     YES
 RMS     Displacement     0.000022     0.001200     YES
 Predicted change in Energy=-4.674735D-09
 Optimization completed.
    -- Stationary point found.
                           ----------------------------
                           !   Optimized Parameters   !
                           ! (Angstroms and Degrees)  !
 --------------------------                            --------------------------
 ! Name  Definition              Value          Derivative Info.                !
 --------------------------------------------------------------------------------
 ! R1    R(1,2)                  1.197          -DE/DX =    0.0001              !
 ! R2    R(1,3)                  1.0648         -DE/DX =    0.0                 !
 ! R3    R(2,4)                  1.0648         -DE/DX =    0.0                 !
 ! A1    L(2,1,3,-3,-1)        180.0            -DE/DX =    0.0                 !
 ! A2    L(1,2,4,-3,-1)        180.0            -DE/DX =    0.0                 !
 ! A3    L(2,1,3,-2,-2)        180.0            -DE/DX =    0.0                 !
 ! A4    L(1,2,4,-2,-2)        180.0            -DE/DX =    0.0                 !
 --------------------------------------------------------------------------------
 GradGradGradGradGradGradGradGradGradGradGradGradGradGradGradGradGradGrad

 Leave Link  103 at Tue Oct 25 22:28:23 2022, MaxMem=  1342177280 cpu:               0.1 elap:               0.0
 (Enter /home/lmod/software/Binaries/g16/B.01/l9999.exe)
 Dipole is zero, so no output in dipole orientation.

 ----------------------------------------------------------------------

 Electric dipole moment (input orientation):
 (Debye = 10**-18 statcoulomb cm , SI units = C m)
                  (au)            (Debye)         (10**-30 SI)
   Tot        0.000000D+00      0.000000D+00      0.000000D+00
   x          0.000000D+00      0.000000D+00      0.000000D+00
   y          0.000000D+00      0.000000D+00      0.000000D+00
   z          0.000000D+00      0.000000D+00      0.000000D+00

 Dipole polarizability, Alpha (input orientation).
 (esu units = cm**3 , SI units = C**2 m**2 J**-1)
 Alpha(0;0):
               (au)            (10**-24 esu)      (10**-40 SI)
   iso        0.198294D+02      0.293842D+01      0.326943D+01
   aniso      0.156910D+02      0.232516D+01      0.258709D+01
   xx         0.302900D+02      0.448852D+01      0.499415D+01
   yx         0.275990D-01      0.408975D-02      0.455046D-02
   yy         0.145992D+02      0.216337D+01      0.240708D+01
   zx        -0.488100D-02     -0.723289D-03     -0.804768D-03
   zy         0.000000D+00      0.000000D+00      0.000000D+00
   zz         0.145991D+02      0.216337D+01      0.240707D+01

 ----------------------------------------------------------------------
 1\1\GINC-SN003\Freq\RPBE1PBE\def2TZVP\C2H2\OYANEZ\25-Oct-2022\0\\#P Ge
 om=AllCheck Guess=TCheck SCRF=Check GenChk RPBE1PBE/def2TZVP Freq\\1_S
 iLi-0000 E=0.000000\\0,1\C,0.0666127371,-0.0008955461,-0.0006138275\C,
 1.2635873268,0.0012098319,-0.0009861725\H,-0.99815958,-0.0027683913,-0
 .0002826068\H,2.3283596439,0.0030826771,-0.0013173932\\Version=ES64L-G
 16RevB.01\State=1-SGG\HF=-77.2561306\RMSD=3.677e-10\RMSF=4.655e-05\Zer
 oPoint=0.0270118\Thermal=0.0298285\Dipole=0.,0.,0.\DipoleDeriv=-0.2120
 974,0.0000246,-0.0000044,0.0000246,-0.2260934,0.,-0.0000044,0.,-0.2260
 934,-0.2120974,0.0000246,-0.0000044,0.0000246,-0.2260934,0.,-0.0000044
 ,0.,-0.2260934,0.2120974,-0.0000246,0.0000044,-0.0000246,0.2260934,0.,
 0.0000044,0.,0.2260934,0.2120974,-0.0000246,0.0000044,-0.0000246,0.226
 0934,0.,0.0000044,0.,0.2260934\Polar=30.2900324,0.027599,14.5991765,-0
 .004881,-0.0000086,14.5991295\Quadrupole=3.4050979,-1.7025413,-1.70255
 66,0.0089839,-0.0015888,-0.0000028\PG=D*H [C*(H1C1.C1H1)]\NImag=0\\1.5
 6047035,0.00266276,0.04661116,-0.00047092,-0.00000083,0.04660662,-1.14
 729318,-0.00197293,0.00034892,1.56047035,-0.00197293,-0.02562371,0.000
 00061,0.00266276,0.04661116,0.00034892,0.00000061,-0.02562035,-0.00047
 092,-0.00000083,0.04660662,-0.41957972,-0.00069666,0.00012321,0.006402
 55,0.00000683,-0.00000121,0.41314399,-0.00069666,-0.02350557,0.0000002
 2,0.00000683,0.00251813,0.,0.00069999,0.01517787,0.00012321,0.00000022
 ,-0.02350439,-0.00000121,0.,0.00251812,-0.00012380,-0.00000022,0.01517
 667,0.00640255,0.00000683,-0.00000121,-0.41957972,-0.00069666,0.000123
 21,0.00003318,-0.00001016,0.00000180,0.41314399,0.00000683,0.00251813,
 0.,-0.00069666,-0.02350557,0.00000022,-0.00001016,0.00580958,0.,0.0006
 9999,0.01517787,-0.00000121,0.,0.00251812,0.00012321,0.00000022,-0.023
 50439,0.00000180,0.,0.00580960,-0.00012380,-0.00000022,0.01517667\\0.0
 0011199,0.00000020,-0.00000003,-0.00011199,-0.00000020,0.00000003,-0.0
 0002147,-0.00000004,0.,0.00002147,0.00000004,0.\\\@


 Fatherhood is pretending the present you love most is soap-on-a-rope.
 -- Bill Cosby
 Job cpu time:       0 days  0 hours  0 minutes 41.6 seconds.
 Elapsed time:       0 days  0 hours  0 minutes  4.6 seconds.
 File lengths (MBytes):  RWF=    272 Int=      0 D2E=      0 Chk=     32 Scr=     32
 Normal termination of Gaussian 16 at Tue Oct 25 22:28:23 2022.
