 Entering Gaussian System, Link 0=/home/lmod/software/Binaries/g16/B.01/g16
 Input=Dicarbon.com
 Output=Dicarbon.log
 Initial command:
 /home/lmod/software/Binaries/g16/B.01/l1.exe "/home/oyanez/Gaussian/coms/Gau-203873.inp" -scrdir="/home/oyanez/Gaussian/coms/"
 Entering Link 1 = /home/lmod/software/Binaries/g16/B.01/l1.exe PID=    203891.
  
 Copyright (c) 1988-2017, Gaussian, Inc.  All Rights Reserved.
  
 This is part of the Gaussian(R) 16 program.  It is based on
 the Gaussian(R) 09 system (copyright 2009, Gaussian, Inc.),
 the Gaussian(R) 03 system (copyright 2003, Gaussian, Inc.),
 the Gaussian(R) 98 system (copyright 1998, Gaussian, Inc.),
 the Gaussian(R) 94 system (copyright 1995, Gaussian, Inc.),
 the Gaussian 92(TM) system (copyright 1992, Gaussian, Inc.),
 the Gaussian 90(TM) system (copyright 1990, Gaussian, Inc.),
 the Gaussian 88(TM) system (copyright 1988, Gaussian, Inc.),
 the Gaussian 86(TM) system (copyright 1986, Carnegie Mellon
 University), and the Gaussian 82(TM) system (copyright 1983,
 Carnegie Mellon University). Gaussian is a federally registered
 trademark of Gaussian, Inc.
  
 This software contains proprietary and confidential information,
 including trade secrets, belonging to Gaussian, Inc.
  
 This software is provided under written license and may be
 used, copied, transmitted, or stored only in accord with that
 written license.
  
 The following legend is applicable only to US Government
 contracts under FAR:
  
                    RESTRICTED RIGHTS LEGEND
  
 Use, reproduction and disclosure by the US Government is
 subject to restrictions as set forth in subparagraphs (a)
 and (c) of the Commercial Computer Software - Restricted
 Rights clause in FAR 52.227-19.
  
 Gaussian, Inc.
 340 Quinnipiac St., Bldg. 40, Wallingford CT 06492
  
  
 ---------------------------------------------------------------
 Warning -- This program may not be used in any manner that
 competes with the business of Gaussian, Inc. or will provide
 assistance to any competitor of Gaussian, Inc.  The licensee
 of this program is prohibited from giving any competitor of
 Gaussian, Inc. access to this program.  By using this program,
 the user acknowledges that Gaussian, Inc. is engaged in the
 business of creating and licensing software in the field of
 computational chemistry and represents and warrants to the
 licensee that it is not a competitor of Gaussian, Inc. and that
 it will not use this program in any manner prohibited above.
 ---------------------------------------------------------------
  

 Cite this work as:
 Gaussian 16, Revision B.01,
 M. J. Frisch, G. W. Trucks, H. B. Schlegel, G. E. Scuseria, 
 M. A. Robb, J. R. Cheeseman, G. Scalmani, V. Barone, 
 G. A. Petersson, H. Nakatsuji, X. Li, M. Caricato, A. V. Marenich, 
 J. Bloino, B. G. Janesko, R. Gomperts, B. Mennucci, H. P. Hratchian, 
 J. V. Ortiz, A. F. Izmaylov, J. L. Sonnenberg, D. Williams-Young, 
 F. Ding, F. Lipparini, F. Egidi, J. Goings, B. Peng, A. Petrone, 
 T. Henderson, D. Ranasinghe, V. G. Zakrzewski, J. Gao, N. Rega, 
 G. Zheng, W. Liang, M. Hada, M. Ehara, K. Toyota, R. Fukuda, 
 J. Hasegawa, M. Ishida, T. Nakajima, Y. Honda, O. Kitao, H. Nakai, 
 T. Vreven, K. Throssell, J. A. Montgomery, Jr., J. E. Peralta, 
 F. Ogliaro, M. J. Bearpark, J. J. Heyd, E. N. Brothers, K. N. Kudin, 
 V. N. Staroverov, T. A. Keith, R. Kobayashi, J. Normand, 
 K. Raghavachari, A. P. Rendell, J. C. Burant, S. S. Iyengar, 
 J. Tomasi, M. Cossi, J. M. Millam, M. Klene, C. Adamo, R. Cammi, 
 J. W. Ochterski, R. L. Martin, K. Morokuma, O. Farkas, 
 J. B. Foresman, and D. J. Fox, Gaussian, Inc., Wallingford CT, 2016.
 
 ******************************************
 Gaussian 16:  ES64L-G16RevB.01 20-Dec-2017
                25-Oct-2022 
 ******************************************
 %mem=10gb
 %nproc=10
 Will use up to   10 processors via shared memory.
 -----------------------------------------
 #p PBE1PBE/Def2TZVP Freq Opt pop=nbo6read
 -----------------------------------------
 1/18=20,19=15,26=3,38=1,163=2/1,3;
 2/9=110,12=2,17=6,18=5,40=1/2;
 3/5=44,7=101,11=2,25=1,30=1,71=1,74=-13/1,2,3;
 4//1;
 5/5=2,38=5/2;
 6/7=2,8=2,9=2,10=2,28=1,40=2,113=1,114=1,124=2103/1,12;
 7//1,2,3,16;
 1/18=20,19=15,26=3/3(2);
 2/9=110/2;
 99//99;
 2/9=110/2;
 3/5=44,7=101,11=2,25=1,30=1,71=1,74=-13/1,2,3;
 4/5=5,16=3,69=1/1;
 5/5=2,38=5/2;
 7//1,2,3,16;
 1/18=20,19=15,26=3/3(-5);
 2/9=110/2;
 6/7=2,8=2,9=2,10=2,19=2,28=1,40=2,113=1,114=1,124=2103/1,12;
 99/9=1/99;
 Leave Link    1 at Tue Oct 25 22:28:11 2022, MaxMem=  1342177280 cpu:               2.5 elap:               0.3
 (Enter /home/lmod/software/Binaries/g16/B.01/l101.exe)
 ----------------------
 1_SiLi-0000 E=0.000000
 ----------------------
 Symbolic Z-matrix:
 Charge =  0 Multiplicity = 1
 C                     0.0287   -0.0009   -0.0006 
 C                     1.3015    0.0013   -0.001 
 
 ITRead=  0  0
 MicOpt= -1 -1
 NAtoms=      2 NQM=        2 NQMF=       0 NMMI=      0 NMMIF=      0
                NMic=       0 NMicF=      0.
                    Isotopes and Nuclear Properties:
 (Nuclear quadrupole moments (NQMom) in fm**2, nuclear magnetic moments (NMagM)
  in nuclear magnetons)

  Atom         1           2
 IAtWgt=          12          12
 AtmWgt=  12.0000000  12.0000000
 NucSpn=           0           0
 AtZEff=  -0.0000000  -0.0000000
 NQMom=    0.0000000   0.0000000
 NMagM=    0.0000000   0.0000000
 AtZNuc=   6.0000000   6.0000000
 Leave Link  101 at Tue Oct 25 22:28:12 2022, MaxMem=  1342177280 cpu:               2.4 elap:               0.3
 (Enter /home/lmod/software/Binaries/g16/B.01/l103.exe)

 GradGradGradGradGradGradGradGradGradGradGradGradGradGradGradGradGradGrad
 Berny optimization.
 Initialization pass.
                           ----------------------------
                           !    Initial Parameters    !
                           ! (Angstroms and Degrees)  !
 --------------------------                            --------------------------
 ! Name  Definition              Value          Derivative Info.                !
 --------------------------------------------------------------------------------
 ! R1    R(1,2)                  1.2728         estimate D2E/DX2                !
 --------------------------------------------------------------------------------
 Trust Radius=3.00D-01 FncErr=1.00D-07 GrdErr=1.00D-06 EigMax=2.50D+02 EigMin=1.00D-04
 Number of steps in this run=     20 maximum allowed number of steps=    100.
 GradGradGradGradGradGradGradGradGradGradGradGradGradGradGradGradGradGrad

 Leave Link  103 at Tue Oct 25 22:28:12 2022, MaxMem=  1342177280 cpu:               0.1 elap:               0.0
 (Enter /home/lmod/software/Binaries/g16/B.01/l202.exe)
                          Input orientation:                          
 ---------------------------------------------------------------------
 Center     Atomic      Atomic             Coordinates (Angstroms)
 Number     Number       Type             X           Y           Z
 ---------------------------------------------------------------------
      1          6           0        0.028700   -0.000900   -0.000600
      2          6           0        1.301500    0.001300   -0.001000
 ---------------------------------------------------------------------
 Stoichiometry    C2
 Framework group  D*H[C*(C.C)]
 Deg. of freedom     1
 Full point group                 D*H     NOp   8
 Largest Abelian subgroup         D2H     NOp   8
 Largest concise Abelian subgroup C2      NOp   2
                         Standard orientation:                         
 ---------------------------------------------------------------------
 Center     Atomic      Atomic             Coordinates (Angstroms)
 Number     Number       Type             X           Y           Z
 ---------------------------------------------------------------------
      1          6           0        0.000000    0.000000    0.636401
      2          6           0        0.000000   -0.000000   -0.636401
 ---------------------------------------------------------------------
 Rotational constants (GHZ):           0.0000000          51.9929280          51.9929280
 Leave Link  202 at Tue Oct 25 22:28:12 2022, MaxMem=  1342177280 cpu:               0.3 elap:               0.0
 (Enter /home/lmod/software/Binaries/g16/B.01/l301.exe)
 Standard basis: def2TZVP (5D, 7F)
 Ernie: Thresh=  0.10000D-02 Tol=  0.10000D-05 Strict=F.
 There are    17 symmetry adapted cartesian basis functions of AG  symmetry.
 There are     3 symmetry adapted cartesian basis functions of B1G symmetry.
 There are     8 symmetry adapted cartesian basis functions of B2G symmetry.
 There are     8 symmetry adapted cartesian basis functions of B3G symmetry.
 There are     3 symmetry adapted cartesian basis functions of AU  symmetry.
 There are    17 symmetry adapted cartesian basis functions of B1U symmetry.
 There are     8 symmetry adapted cartesian basis functions of B2U symmetry.
 There are     8 symmetry adapted cartesian basis functions of B3U symmetry.
 There are    14 symmetry adapted basis functions of AG  symmetry.
 There are     3 symmetry adapted basis functions of B1G symmetry.
 There are     7 symmetry adapted basis functions of B2G symmetry.
 There are     7 symmetry adapted basis functions of B3G symmetry.
 There are     3 symmetry adapted basis functions of AU  symmetry.
 There are    14 symmetry adapted basis functions of B1U symmetry.
 There are     7 symmetry adapted basis functions of B2U symmetry.
 There are     7 symmetry adapted basis functions of B3U symmetry.
    62 basis functions,   102 primitive gaussians,    72 cartesian basis functions
     6 alpha electrons        6 beta electrons
       nuclear repulsion energy        14.9672770230 Hartrees.
 IExCor= 1009 DFT=T Ex+Corr=PBE1PBE ExCW=0 ScaHFX=  0.250000
 ScaDFX=  0.750000  0.750000  1.000000  1.000000 ScalE2=  1.000000  1.000000
 IRadAn=      5 IRanWt=     -1 IRanGd=            0 ICorTp=0 IEmpDi=  4
 NAtoms=    2 NActive=    2 NUniq=    1 SFac= 4.00D+00 NAtFMM=   60 NAOKFM=F Big=F
 Integral buffers will be    131072 words long.
 Raffenetti 2 integral format.
 Two-electron integral symmetry is turned on.
 Leave Link  301 at Tue Oct 25 22:28:12 2022, MaxMem=  1342177280 cpu:               0.5 elap:               0.1
 (Enter /home/lmod/software/Binaries/g16/B.01/l302.exe)
 NPDir=0 NMtPBC=     1 NCelOv=     1 NCel=       1 NClECP=     1 NCelD=      1
         NCelK=      1 NCelE2=     1 NClLst=     1 CellRange=     0.0.
 One-electron integrals computed using PRISM.
 One-electron integral symmetry used in STVInt
   8 Symmetry operations used in ECPInt.
 ECPInt:  NShTT=     253 NPrTT=     864 LenC2=     254 LenP2D=     816.
 LDataN:  DoStor=T MaxTD1= 6 Len=  172
 NBasis=    62 RedAO= T EigKep=  1.79D-04  NBF=    14     3     7     7     3    14     7     7
 NBsUse=    62 1.00D-06 EigRej= -1.00D+00 NBFU=    14     3     7     7     3    14     7     7
 Precomputing XC quadrature grid using
 IXCGrd= 4 IRadAn=           5 IRanWt=          -1 IRanGd=           0 AccXCQ= 0.00D+00.
 Generated NRdTot=       0 NPtTot=           0 NUsed=           0 NTot=          32
 NSgBfM=    72    72    72    72    72 MxSgAt=     2 MxSgA2=     2.
 Leave Link  302 at Tue Oct 25 22:28:12 2022, MaxMem=  1342177280 cpu:               1.2 elap:               0.1
 (Enter /home/lmod/software/Binaries/g16/B.01/l303.exe)
 DipDrv:  MaxL=1.
 Leave Link  303 at Tue Oct 25 22:28:12 2022, MaxMem=  1342177280 cpu:               0.2 elap:               0.0
 (Enter /home/lmod/software/Binaries/g16/B.01/l401.exe)
 ExpMin= 9.52D-02 ExpMax= 1.36D+04 ExpMxC= 4.63D+02 IAcc=3 IRadAn=         5 AccDes= 0.00D+00
 Harris functional with IExCor= 1009 and IRadAn=       5 diagonalized for initial guess.
 HarFok:  IExCor= 1009 AccDes= 0.00D+00 IRadAn=         5 IDoV= 1 UseB2=F ITyADJ=14
 ICtDFT=  3500011 ScaDFX=  1.000000  1.000000  1.000000  1.000000
 FoFCou: FMM=F IPFlag=           0 FMFlag=      100000 FMFlg1=           0
         NFxFlg=           0 DoJE=T BraDBF=F KetDBF=T FulRan=T
         wScrn=  0.000000 ICntrl=       500 IOpCl=  0 I1Cent=   200000004 NGrid=           0
         NMat0=    1 NMatS0=      1 NMatT0=    0 NMatD0=    1 NMtDS0=    0 NMtDT0=    0
 Petite list used in FoFCou.
 Harris En= -75.8402570262325    
 JPrj=0 DoOrth=F DoCkMO=F.
 Initial guess orbital symmetries:
       Occupied  (SGG) (SGU) (SGG) (SGU) (PIU) (PIU)
       Virtual   (SGG) (PIG) (PIG) (SGG) (SGU) (PIU) (PIU) (SGG)
                 (PIG) (PIG) (SGU) (DLTG) (DLTG) (SGU) (PIU) (PIU)
                 (DLTU) (DLTU) (SGG) (SGU) (PIG) (PIG) (SGG) (PIU)
                 (PIU) (SGU) (PIG) (PIG) (SGG) (SGU) (DLTG) (DLTG)
                 (PIU) (PIU) (PHIU) (PHIU) (SGG) (PHIG) (PHIG)
                 (DLTG) (DLTG) (DLTU) (DLTU) (PIG) (PIG) (SGU)
                 (PIU) (PIU) (DLTU) (DLTU) (SGG) (PIG) (PIG) (SGU)
                 (SGG) (SGU)
 The electronic state of the initial guess is 1-SGG.
 Leave Link  401 at Tue Oct 25 22:28:12 2022, MaxMem=  1342177280 cpu:               1.5 elap:               0.2
 (Enter /home/lmod/software/Binaries/g16/B.01/l502.exe)
 Keep R1 ints in memory in symmetry-blocked form, NReq=10890769.
 FoFCou: FMM=F IPFlag=           0 FMFlag=           0 FMFlg1=           0
         NFxFlg=           0 DoJE=F BraDBF=F KetDBF=F FulRan=T
         wScrn=  0.000000 ICntrl=       600 IOpCl=  0 I1Cent=           0 NGrid=           0
         NMat0=    1 NMatS0=   1953 NMatT0=    0 NMatD0=    1 NMtDS0=    0 NMtDT0=    0
 Petite list used in FoFCou.
 Closed shell SCF:
 Using DIIS extrapolation, IDIIS=  1040.
 NGot=  1342177280 LenX=  1341907953 LenY=  1341902328
 Requested convergence on RMS density matrix=1.00D-08 within 128 cycles.
 Requested convergence on MAX density matrix=1.00D-06.
 Requested convergence on             energy=1.00D-06.
 No special actions if energy rises.
 Integral accuracy reduced to 1.0D-05 until final iterations.

 Cycle   1  Pass 0  IDiag  1:
 E= -75.7726222540386    
 DIIS: error= 3.41D-02 at cycle   1 NSaved=   1.
 NSaved= 1 IEnMin= 1 EnMin= -75.7726222540386     IErMin= 1 ErrMin= 3.41D-02
 ErrMax= 3.41D-02  0.00D+00 EMaxC= 1.00D-01 BMatC= 2.75D-02 BMatP= 2.75D-02
 IDIUse=3 WtCom= 6.59D-01 WtEn= 3.41D-01
 Coeff-Com:  0.100D+01
 Coeff-En:   0.100D+01
 Coeff:      0.100D+01
 Gap=     0.054 Goal=   None    Shift=    0.000
 GapD=    0.054 DampG=0.500 DampE=0.500 DampFc=0.2500 IDamp=-1.
 Damping current iteration by 2.50D-01
 RMSDP=3.75D-03 MaxDP=7.43D-02              OVMax= 1.48D-01

 Cycle   2  Pass 0  IDiag  1:
 E= -75.7823068565333     Delta-E=       -0.009684602495 Rises=F Damp=T
 DIIS: error= 2.09D-02 at cycle   2 NSaved=   2.
 NSaved= 2 IEnMin= 2 EnMin= -75.7823068565333     IErMin= 2 ErrMin= 2.09D-02
 ErrMax= 2.09D-02  0.00D+00 EMaxC= 1.00D-01 BMatC= 9.90D-03 BMatP= 2.75D-02
 IDIUse=3 WtCom= 7.91D-01 WtEn= 2.09D-01
 Coeff-Com: -0.137D+01 0.237D+01
 Coeff-En:   0.000D+00 0.100D+01
 Coeff:     -0.108D+01 0.208D+01
 Gap=     0.075 Goal=   None    Shift=    0.000
 RMSDP=1.78D-03 MaxDP=3.63D-02 DE=-9.68D-03 OVMax= 4.52D-02

 Cycle   3  Pass 0  IDiag  1:
 E= -75.8015028465121     Delta-E=       -0.019195989979 Rises=F Damp=F
 DIIS: error= 2.25D-03 at cycle   3 NSaved=   3.
 NSaved= 3 IEnMin= 3 EnMin= -75.8015028465121     IErMin= 3 ErrMin= 2.25D-03
 ErrMax= 2.25D-03  0.00D+00 EMaxC= 1.00D-01 BMatC= 1.06D-04 BMatP= 9.90D-03
 IDIUse=3 WtCom= 9.78D-01 WtEn= 2.25D-02
 Coeff-Com:  0.131D+00-0.132D+00 0.100D+01
 Coeff-En:   0.000D+00 0.000D+00 0.100D+01
 Coeff:      0.128D+00-0.129D+00 0.100D+01
 Gap=     0.080 Goal=   None    Shift=    0.000
 RMSDP=9.95D-05 MaxDP=1.37D-03 DE=-1.92D-02 OVMax= 2.38D-03

 Cycle   4  Pass 0  IDiag  1:
 E= -75.8015796586861     Delta-E=       -0.000076812174 Rises=F Damp=F
 DIIS: error= 2.23D-04 at cycle   4 NSaved=   4.
 NSaved= 4 IEnMin= 4 EnMin= -75.8015796586861     IErMin= 4 ErrMin= 2.23D-04
 ErrMax= 2.23D-04  0.00D+00 EMaxC= 1.00D-01 BMatC= 2.44D-06 BMatP= 1.06D-04
 IDIUse=3 WtCom= 9.98D-01 WtEn= 2.23D-03
 Coeff-Com:  0.655D-01-0.925D-01 0.110D+00 0.917D+00
 Coeff-En:   0.000D+00 0.000D+00 0.000D+00 0.100D+01
 Coeff:      0.654D-01-0.923D-01 0.110D+00 0.917D+00
 Gap=     0.080 Goal=   None    Shift=    0.000
 RMSDP=2.18D-05 MaxDP=3.99D-04 DE=-7.68D-05 OVMax= 5.46D-04

 Cycle   5  Pass 0  IDiag  1:
 E= -75.8015822783711     Delta-E=       -0.000002619685 Rises=F Damp=F
 DIIS: error= 5.82D-05 at cycle   5 NSaved=   5.
 NSaved= 5 IEnMin= 5 EnMin= -75.8015822783711     IErMin= 5 ErrMin= 5.82D-05
 ErrMax= 5.82D-05  0.00D+00 EMaxC= 1.00D-01 BMatC= 6.34D-08 BMatP= 2.44D-06
 IDIUse=1 WtCom= 1.00D+00 WtEn= 0.00D+00
 Coeff-Com:  0.311D-02-0.434D-02-0.159D-01 0.439D-02 0.101D+01
 Coeff:      0.311D-02-0.434D-02-0.159D-01 0.439D-02 0.101D+01
 Gap=     0.080 Goal=   None    Shift=    0.000
 RMSDP=2.76D-06 MaxDP=4.24D-05 DE=-2.62D-06 OVMax= 7.07D-05

 Initial convergence to 1.0D-05 achieved.  Increase integral accuracy.
 Cycle   6  Pass 1  IDiag  1:
 E= -75.8015831598294     Delta-E=       -0.000000881458 Rises=F Damp=F
 DIIS: error= 2.80D-06 at cycle   1 NSaved=   1.
 NSaved= 1 IEnMin= 1 EnMin= -75.8015831598294     IErMin= 1 ErrMin= 2.80D-06
 ErrMax= 2.80D-06  0.00D+00 EMaxC= 1.00D-01 BMatC= 1.83D-10 BMatP= 1.83D-10
 IDIUse=1 WtCom= 1.00D+00 WtEn= 0.00D+00
 Coeff-Com:  0.100D+01
 Coeff:      0.100D+01
 Gap=     0.080 Goal=   None    Shift=    0.000
 RMSDP=2.76D-06 MaxDP=4.24D-05 DE=-8.81D-07 OVMax= 7.50D-06

 Cycle   7  Pass 1  IDiag  1:
 E= -75.8015831599209     Delta-E=       -0.000000000092 Rises=F Damp=F
 DIIS: error= 1.79D-06 at cycle   2 NSaved=   2.
 NSaved= 2 IEnMin= 2 EnMin= -75.8015831599209     IErMin= 2 ErrMin= 1.79D-06
 ErrMax= 1.79D-06  0.00D+00 EMaxC= 1.00D-01 BMatC= 8.34D-11 BMatP= 1.83D-10
 IDIUse=1 WtCom= 1.00D+00 WtEn= 0.00D+00
 Coeff-Com:  0.400D+00 0.600D+00
 Coeff:      0.400D+00 0.600D+00
 Gap=     0.080 Goal=   None    Shift=    0.000
 RMSDP=1.04D-07 MaxDP=1.47D-06 DE=-9.15D-11 OVMax= 4.19D-06

 Cycle   8  Pass 1  IDiag  1:
 E= -75.8015831600135     Delta-E=       -0.000000000093 Rises=F Damp=F
 DIIS: error= 1.38D-07 at cycle   3 NSaved=   3.
 NSaved= 3 IEnMin= 3 EnMin= -75.8015831600135     IErMin= 3 ErrMin= 1.38D-07
 ErrMax= 1.38D-07  0.00D+00 EMaxC= 1.00D-01 BMatC= 4.28D-13 BMatP= 8.34D-11
 IDIUse=1 WtCom= 1.00D+00 WtEn= 0.00D+00
 Coeff-Com: -0.351D-01 0.201D-01 0.102D+01
 Coeff:     -0.351D-01 0.201D-01 0.102D+01
 Gap=     0.080 Goal=   None    Shift=    0.000
 RMSDP=3.06D-08 MaxDP=4.56D-07 DE=-9.27D-11 OVMax= 2.31D-07

 Cycle   9  Pass 1  IDiag  1:
 E= -75.8015831600140     Delta-E=       -0.000000000000 Rises=F Damp=F
 DIIS: error= 9.49D-09 at cycle   4 NSaved=   4.
 NSaved= 4 IEnMin= 4 EnMin= -75.8015831600140     IErMin= 4 ErrMin= 9.49D-09
 ErrMax= 9.49D-09  0.00D+00 EMaxC= 1.00D-01 BMatC= 1.76D-15 BMatP= 4.28D-13
 IDIUse=1 WtCom= 1.00D+00 WtEn= 0.00D+00
 Coeff-Com:  0.107D-02-0.154D-02-0.110D+00 0.111D+01
 Coeff:      0.107D-02-0.154D-02-0.110D+00 0.111D+01
 Gap=     0.080 Goal=   None    Shift=    0.000
 RMSDP=4.12D-10 MaxDP=5.31D-09 DE=-4.55D-13 OVMax= 1.49D-08

 SCF Done:  E(RPBE1PBE) =  -75.8015831600     A.U. after    9 cycles
            NFock=  9  Conv=0.41D-09     -V/T= 2.0051
 KE= 7.541793055149D+01 PE=-2.060785213001D+02 EE= 3.989173056563D+01
 Leave Link  502 at Tue Oct 25 22:28:13 2022, MaxMem=  1342177280 cpu:               3.1 elap:               0.3
 (Enter /home/lmod/software/Binaries/g16/B.01/l601.exe)
 Copying SCF densities to generalized density rwf, IOpCl= 0 IROHF=0.

 **********************************************************************

            Population analysis using the SCF Density.

 **********************************************************************

 Orbital symmetries:
       Occupied  (SGG) (SGU) (SGG) (SGU) (PIU) (PIU)
       Virtual   (SGG) (PIG) (PIG) (SGG) (SGU) (PIU) (PIU) (SGG)
                 (PIG) (PIG) (SGU) (DLTG) (DLTG) (SGU) (PIU) (PIU)
                 (DLTU) (DLTU) (SGG) (SGU) (PIG) (PIG) (SGG) (PIU)
                 (PIU) (SGU) (PIG) (PIG) (SGG) (SGU) (DLTG) (DLTG)
                 (PIU) (PIU) (PHIU) (PHIU) (SGG) (PHIG) (PHIG)
                 (DLTG) (DLTG) (DLTU) (DLTU) (PIG) (PIG) (SGU)
                 (PIU) (PIU) (DLTU) (DLTU) (SGG) (PIG) (PIG) (SGU)
                 (SGG) (SGU)
 The electronic state is 1-SGG.
 Alpha  occ. eigenvalues --  -10.34498 -10.34364  -0.80839  -0.42611  -0.33801
 Alpha  occ. eigenvalues --   -0.33801
 Alpha virt. eigenvalues --   -0.25835  -0.00111  -0.00111   0.16293   0.17136
 Alpha virt. eigenvalues --    0.21838   0.21838   0.22969   0.31463   0.31463
 Alpha virt. eigenvalues --    0.33593   0.58073   0.58073   0.60454   0.75201
 Alpha virt. eigenvalues --    0.75201   0.87520   0.87520   0.89913   1.11558
 Alpha virt. eigenvalues --    1.13329   1.13329   1.25243   1.39302   1.39302
 Alpha virt. eigenvalues --    1.43312   1.59317   1.59317   1.79598   1.98828
 Alpha virt. eigenvalues --    2.42509   2.42509   2.48997   2.48997   2.51363
 Alpha virt. eigenvalues --    2.51363   2.81297   2.87362   2.87362   2.93799
 Alpha virt. eigenvalues --    2.93799   3.02979   3.02979   3.03864   3.03864
 Alpha virt. eigenvalues --    3.39860   3.43058   3.43058   3.47783   3.47783
 Alpha virt. eigenvalues --    4.33080   4.40494   4.40494   4.48583  21.36339
 Alpha virt. eigenvalues --   22.19124
          Condensed to atoms (all electrons):
               1          2
     1  C    5.175027   0.824973
     2  C    0.824973   5.175027
 Mulliken charges:
               1
     1  C    0.000000
     2  C    0.000000
 Sum of Mulliken charges =   0.00000
 Mulliken charges with hydrogens summed into heavy atoms:
               1
     1  C    0.000000
     2  C    0.000000
 Electronic spatial extent (au):  <R**2>=             42.3231
 Charge=              0.0000 electrons
 Dipole moment (field-independent basis, Debye):
    X=              0.0000    Y=             -0.0000    Z=             -0.0000  Tot=              0.0000
 Quadrupole moment (field-independent basis, Debye-Ang):
   XX=            -12.3613   YY=            -12.3613   ZZ=             -8.8595
   XY=             -0.0000   XZ=             -0.0000   YZ=              0.0000
 Traceless Quadrupole moment (field-independent basis, Debye-Ang):
   XX=             -1.1673   YY=             -1.1673   ZZ=              2.3346
   XY=             -0.0000   XZ=             -0.0000   YZ=              0.0000
 Octapole moment (field-independent basis, Debye-Ang**2):
  XXX=             -0.0000  YYY=              0.0000  ZZZ=              0.0000  XYY=             -0.0000
  XXY=              0.0000  XXZ=              0.0000  XZZ=             -0.0000  YZZ=              0.0000
  YYZ=             -0.0000  XYZ=              0.0000
 Hexadecapole moment (field-independent basis, Debye-Ang**3):
 XXXX=            -15.0149 YYYY=            -15.0149 ZZZZ=            -34.5902 XXXY=             -0.0000
 XXXZ=              0.0000 YYYX=             -0.0000 YYYZ=              0.0000 ZZZX=              0.0000
 ZZZY=              0.0000 XXYY=             -5.0050 XXZZ=             -8.7884 YYZZ=             -8.7884
 XXYZ=              0.0000 YYXZ=              0.0000 ZZXY=             -0.0000
 N-N= 1.496727702295D+01 E-N=-2.060785214754D+02  KE= 7.541793055149D+01
 Symmetry AG   KE= 3.558690644064D+01
 Symmetry B1G  KE= 3.242122162671D-34
 Symmetry B2G  KE= 1.214776651058D-19
 Symmetry B3G  KE=-2.827334265307D-19
 Symmetry AU   KE= 2.706346698267D-33
 Symmetry B1U  KE= 3.517544107410D+01
 Symmetry B2U  KE= 2.327791518375D+00
 Symmetry B3U  KE= 2.327791518375D+00
 No NMR shielding tensors so no spin-rotation constants.
 Leave Link  601 at Tue Oct 25 22:28:13 2022, MaxMem=  1342177280 cpu:               1.0 elap:               0.1
 (Enter /home/lmod/software/Binaries/g16/B.01/l612.exe)
 Running external command "gaunbo6 R"
         input file       "/home/oyanez/Gaussian/coms/Gau-203891.EIn"
         output file      "/home/oyanez/Gaussian/coms/Gau-203891.EOu"
         message file     "/home/oyanez/Gaussian/coms/Gau-203891.EMs"
         fchk file        "/home/oyanez/Gaussian/coms/Gau-203891.EFC"
         mat. el file     "/home/oyanez/Gaussian/coms/Gau-203891.EUF"
 Warning:  Reading an uninitialized block!
 Want step      1 but only have      0 steps.

 Writing WrtUnf unformatted file "/home/oyanez/Gaussian/coms/Gau-203891.EUF"
 Gaussian matrix elements                                         Version   2 NLab=11 Len12L=8 Len4L=8
 Write SHELL TO ATOM MAP                   from file     0 offset           0 length                  22 to matrix element file.
 Write SHELL TYPES                         from file     0 offset           0 length                  22 to matrix element file.
 Write NUMBER OF PRIMITIVES PER SHELL      from file     0 offset           0 length                  22 to matrix element file.
 Write PRIMITIVE EXPONENTS                 from file     0 offset           0 length                  40 to matrix element file.
 Write CONTRACTION COEFFICIENTS            from file     0 offset           0 length                  40 to matrix element file.
 Write P(S=P) CONTRACTION COEFFICIENTS     from file     0 offset           0 length                  40 to matrix element file.
 Write COORDINATES OF EACH SHELL           from file     0 offset           0 length                  66 to matrix element file.
 Write BONDS PER ATOM                      from file     0 offset           0 length                   2 to matrix element file.
 Write BONDED ATOMS                        from file     0 offset           0 length                   2 to matrix element file.
 Write BOND TYPES                          from file     0 offset           0 length                   2 to matrix element file.
 Write GAUSSIAN SCALARS                    from file   501 offset           0 to matrix element file.
 Write INTEGER ISO                         from file     0 offset           0 length                   2 to matrix element file.
 Write REAL ZEFFECTIVE                     from file     0 offset           0 length                   2 to matrix element file.
 Write REAL ZNUCLEAR                       from file     0 offset           0 length                   2 to matrix element file.
 Write MULLIKEN CHARGES                    from file     0 offset           0 length                   2 to matrix element file.
 Write NUCLEAR GRADIENT                    from file 10584 offset           0 length                   6 to matrix element file.
 Array NUCLEAR FORCE CONSTANTS              on  file 10585 does not exist.
 Write ELECTRIC DIPOLE MOMENT              from file     0 offset           0 length                   3 to matrix element file.
 Write NON-ADIABATIC COUPLING              from file 10810 offset           0 length                   6 to matrix element file.
 Write OVERLAP                             from file 10514 offset           0 length                1953 to matrix element file.
 Write CORE HAMILTONIAN ALPHA              from file 10515 offset           0 length                1953 to matrix element file.
 Write CORE HAMILTONIAN BETA               from file 10515 offset        1953 length                1953 to matrix element file.
 Write KINETIC ENERGY                      from file 10516 offset           0 length                1953 to matrix element file.
 Write ORTHOGONAL BASIS                    from file 10685 offset           0 length                3844 to matrix element file.
 Write DIPOLE INTEGRALS                    from file 10518 offset           0 length                5859 to matrix element file.
 Array DIP VEL INTEGRALS                    on  file 10572 does not exist.
 Array R X DEL INTEGRALS                    on  file 10572 does not exist.
 Write ALPHA ORBITAL ENERGIES              from file     0 offset           0 length                  62 to matrix element file.
 Write ALPHA MO COEFFICIENTS               from file 10524 offset           0 length                3844 to matrix element file.
 Write ALPHA DENSITY MATRIX                from file     0 offset           0 length                1953 to matrix element file.
 Write ALPHA SCF DENSITY MATRIX            from file 10528 offset           0 length                1953 to matrix element file.
 Write ALPHA FOCK MATRIX                   from file 10536 offset           0 length                1953 to matrix element file.
 Write ALPHA SCF DENSITY                   from file     0 offset           0 length                1953 to matrix element file.
 No 2e integrals to process.
 Perform NBO analysis...executing G16NBO...

 *********************************** NBO 7.0 ***********************************
             N A T U R A L   A T O M I C   O R B I T A L   A N D
          N A T U R A L   B O N D   O R B I T A L   A N A L Y S I S
 *********************** Kerry Wrighton-Araneda (I102012) **********************
  (c) Copyright 1996-2020 Board of Regents of the University of Wisconsin System
      on behalf of the Theoretical Chemistry Institute.  All rights reserved.

          Cite this program [NBO 7.0.9 (21-May-2020)] as:

          NBO 7.0.  E. D. Glendening, J. K. Badenhoop, A. E. Reed,
          J. E. Carpenter, J. A. Bohmann, C. M. Morales, P. Karafiloglou,
          C. R. Landis, and F. Weinhold, Theoretical Chemistry Institute,
          University of Wisconsin, Madison, WI (2018)

       /BNDIDX / : Print bond indices based on the NAO density matrix

 Filename set to /home/oyanez/Gaussian/coms/Gau-203891

 Job title: 1_SiLi-0000 E=0.000000


 NATURAL POPULATIONS:  Natural atomic orbital occupancies

  NAO Atom No lang   Type(AO)    Occupancy      Energy
 -------------------------------------------------------
   1    C  1  s      Cor( 1s)     2.00000     -10.34428
   2    C  1  s      Val( 2s)     1.35912      -0.34989
   3    C  1  s      Ryd( 4s)     0.00046      10.56771
   4    C  1  s      Ryd( 5s)     0.00000      10.63691
   5    C  1  s      Ryd( 3s)     0.00000       2.27518
   6    C  1  px     Val( 2p)     0.99721      -0.15052
   7    C  1  px     Ryd( 3p)     0.00059       0.53100
   8    C  1  px     Ryd( 4p)     0.00002       1.36322
   9    C  1  py     Val( 2p)     0.99721      -0.15052
  10    C  1  py     Ryd( 3p)     0.00059       0.53100
  11    C  1  py     Ryd( 4p)     0.00002       1.36322
  12    C  1  pz     Val( 2p)     0.62591      -0.09634
  13    C  1  pz     Ryd( 3p)     0.01207       0.57115
  14    C  1  pz     Ryd( 4p)     0.00023       2.56647
  15    C  1  dxy    Ryd( 3d)     0.00000       1.19061
  16    C  1  dxy    Ryd( 4d)     0.00000       2.52659
  17    C  1  dxz    Ryd( 3d)     0.00177       1.73646
  18    C  1  dxz    Ryd( 4d)     0.00000       2.49690
  19    C  1  dyz    Ryd( 3d)     0.00177       1.73646
  20    C  1  dyz    Ryd( 4d)     0.00000       2.49690
  21    C  1  dx2y2  Ryd( 3d)     0.00000       1.19061
  22    C  1  dx2y2  Ryd( 4d)     0.00000       2.52659
  23    C  1  dz2    Ryd( 3d)     0.00169       1.87799
  24    C  1  dz2    Ryd( 4d)     0.00010       2.27359
  25    C  1  f(0)   Ryd( 4f)     0.00042       3.21666
  26    C  1  f(c1)  Ryd( 4f)     0.00041       3.23769
  27    C  1  f(s1)  Ryd( 4f)     0.00041       3.23769
  28    C  1  f(c2)  Ryd( 4f)     0.00000       2.94612
  29    C  1  f(s2)  Ryd( 4f)     0.00000       2.94612
  30    C  1  f(c3)  Ryd( 4f)     0.00000       2.69363
  31    C  1  f(s3)  Ryd( 4f)     0.00000       2.69363

  32    C  2  s      Cor( 1s)     2.00000     -10.34428
  33    C  2  s      Val( 2s)     1.35912      -0.34989
  34    C  2  s      Ryd( 4s)     0.00046      10.56771
  35    C  2  s      Ryd( 5s)     0.00000      10.63691
  36    C  2  s      Ryd( 3s)     0.00000       2.27518
  37    C  2  px     Val( 2p)     0.99721      -0.15052
  38    C  2  px     Ryd( 3p)     0.00059       0.53100
  39    C  2  px     Ryd( 4p)     0.00002       1.36322
  40    C  2  py     Val( 2p)     0.99721      -0.15052
  41    C  2  py     Ryd( 3p)     0.00059       0.53100
  42    C  2  py     Ryd( 4p)     0.00002       1.36322
  43    C  2  pz     Val( 2p)     0.62591      -0.09634
  44    C  2  pz     Ryd( 3p)     0.01207       0.57115
  45    C  2  pz     Ryd( 4p)     0.00023       2.56647
  46    C  2  dxy    Ryd( 3d)     0.00000       1.19061
  47    C  2  dxy    Ryd( 4d)     0.00000       2.52659
  48    C  2  dxz    Ryd( 3d)     0.00177       1.73646
  49    C  2  dxz    Ryd( 4d)     0.00000       2.49690
  50    C  2  dyz    Ryd( 3d)     0.00177       1.73646
  51    C  2  dyz    Ryd( 4d)     0.00000       2.49690
  52    C  2  dx2y2  Ryd( 3d)     0.00000       1.19061
  53    C  2  dx2y2  Ryd( 4d)     0.00000       2.52659
  54    C  2  dz2    Ryd( 3d)     0.00169       1.87799
  55    C  2  dz2    Ryd( 4d)     0.00010       2.27359
  56    C  2  f(0)   Ryd( 4f)     0.00042       3.21666
  57    C  2  f(c1)  Ryd( 4f)     0.00041       3.23769
  58    C  2  f(s1)  Ryd( 4f)     0.00041       3.23769
  59    C  2  f(c2)  Ryd( 4f)     0.00000       2.94612
  60    C  2  f(s2)  Ryd( 4f)     0.00000       2.94612
  61    C  2  f(c3)  Ryd( 4f)     0.00000       2.69363
  62    C  2  f(s3)  Ryd( 4f)     0.00000       2.69363


 Summary of Natural Population Analysis:

                                     Natural Population
             Natural    ---------------------------------------------
  Atom No    Charge        Core      Valence    Rydberg      Total
 --------------------------------------------------------------------
    C  1   -0.00000      2.00000     3.97944    0.02057     6.00000
    C  2   -0.00000      2.00000     3.97944    0.02057     6.00000
 ====================================================================
 * Total * -0.00000      3.99999     7.95887    0.04113    12.00000

                                 Natural Population
 ---------------------------------------------------------
   Core                       3.99999 ( 99.9998% of    4)
   Valence                    7.95887 ( 99.4859% of    8)
   Natural Minimal Basis     11.95887 ( 99.6572% of   12)
   Natural Rydberg Basis      0.04113 (  0.3428% of   12)
 ---------------------------------------------------------

    Atom No         Natural Electron Configuration
 ----------------------------------------------------------------------------
      C  1      [core]2s( 1.36)2p( 2.62)3p( 0.01)3d( 0.01)
      C  2      [core]2s( 1.36)2p( 2.62)3p( 0.01)3d( 0.01)


 Wiberg bond index matrix in the NAO basis:

     Atom    1       2
     ---- ------  ------
   1.  C  0.0000  3.7162
   2.  C  3.7162  0.0000


 Wiberg bond index, Totals by atom:

     Atom    1
     ---- ------
   1.  C  3.7162
   2.  C  3.7162


 NBI: Natural Binding Index (NCU strength parameters)

     Atom    1       2
     ---- ------  ------
   1.  C  0.0000  1.9277
   2.  C  1.9277  0.0000


 NATURAL BOND ORBITAL ANALYSIS:

                            Occupancies       Lewis Structure    Low   High
         Max    Occ     -------------------  -----------------   occ   occ
  Cycle  Ctr   Thresh    Lewis   non-Lewis     CR  BD  nC  LP    (L)   (NL)
 ============================================================================
    1     2     1.90    11.91352   0.08648      2   4   0   0     0      0
 ----------------------------------------------------------------------------

 Structure accepted: No low occupancy Lewis orbitals

 -------------------------------------------------------
   Core                      3.99999 (100.000% of   4)
   Valence Lewis             7.91352 ( 98.919% of   8)
  ==================      =============================
   Total Lewis              11.91352 ( 99.279% of  12)
  -----------------------------------------------------
   Valence non-Lewis         0.08648 (  0.721% of  12)
   Rydberg non-Lewis         0.00001 (  0.000% of  12)
  ==================      =============================
   Total non-Lewis           0.08648 (  0.721% of  12)
 -------------------------------------------------------


     (Occupancy)   Bond orbital / Coefficients / Hybrids
 ------------------ Lewis ------------------------------------------------------
   1. (2.00000) CR ( 1) C  1            s(100.00%)
                                         1.0000  0.0000  0.0000  0.0000  0.0000
                                         0.0000  0.0000  0.0000  0.0000  0.0000
                                         0.0000  0.0000  0.0000  0.0000  0.0000
                                         0.0000  0.0000  0.0000  0.0000  0.0000
                                         0.0000  0.0000  0.0000  0.0000  0.0000
                                         0.0000  0.0000  0.0000  0.0000  0.0000
                                         0.0000
   2. (2.00000) CR ( 1) C  2            s(100.00%)
                                         1.0000  0.0000  0.0000  0.0000  0.0000
                                         0.0000  0.0000  0.0000  0.0000  0.0000
                                         0.0000  0.0000  0.0000  0.0000  0.0000
                                         0.0000  0.0000  0.0000  0.0000  0.0000
                                         0.0000  0.0000  0.0000  0.0000  0.0000
                                         0.0000  0.0000  0.0000  0.0000  0.0000
                                         0.0000
   3. (1.99751) BD ( 1) C  1- C  2
               ( 49.54%)   0.7038* C  1 s(  0.19%)p99.99( 99.60%)d 0.96(  0.18%)
                                                  f 0.22(  0.04%)
                                         0.0000 -0.0428  0.0047  0.0000  0.0000
                                        -0.9692  0.0235 -0.0044  0.1593 -0.0039
                                         0.0007 -0.1742 -0.0152  0.0023 -0.0000
                                        -0.0000  0.0409  0.0002 -0.0067 -0.0000
                                        -0.0000 -0.0000  0.0073 -0.0014 -0.0028
                                        -0.0197  0.0032 -0.0000 -0.0000 -0.0000
                                        -0.0000
               ( 50.46%)   0.7104* C  2 s(  2.54%)p38.21( 97.24%)d 0.07(  0.17%)
                                                  f 0.02(  0.04%)
                                         0.0000  0.1595 -0.0019 -0.0000 -0.0000
                                        -0.9695  0.0235 -0.0044  0.1595 -0.0039
                                         0.0007 -0.0788 -0.0179 -0.0002 -0.0000
                                        -0.0000 -0.0409 -0.0002  0.0067  0.0000
                                         0.0000  0.0000 -0.0007  0.0017  0.0005
                                        -0.0197  0.0032 -0.0000 -0.0000 -0.0000
                                        -0.0000
   4. (1.95857) BD ( 2) C  1- C  2
               ( 62.81%)   0.7925* C  1 s( 89.20%)p 0.12( 10.66%)d 0.00(  0.11%)
                                                  f 0.00(  0.03%)
                                         0.0000  0.9444  0.0101  0.0000  0.0000
                                         0.0184 -0.0004  0.0001  0.0177 -0.0004
                                         0.0001 -0.3211  0.0523  0.0131  0.0000
                                         0.0000 -0.0008 -0.0000 -0.0007 -0.0000
                                        -0.0000 -0.0000  0.0322  0.0048 -0.0184
                                         0.0004  0.0004 -0.0000  0.0000  0.0000
                                        -0.0000
               ( 37.19%)   0.6099* C  2 s( 25.98%)p 2.84( 73.72%)d 0.01(  0.24%)
                                                  f 0.00(  0.05%)
                                         0.0000  0.5091  0.0240  0.0000  0.0000
                                         0.0168 -0.0004  0.0001  0.0196 -0.0005
                                         0.0001  0.8579  0.0185 -0.0177  0.0000
                                         0.0000  0.0007  0.0000  0.0008  0.0000
                                        -0.0000 -0.0000  0.0492 -0.0017  0.0231
                                         0.0003  0.0004  0.0000 -0.0000  0.0000
                                        -0.0000
   5. (1.99854) BD ( 3) C  1- C  2
               ( 49.87%)   0.7062* C  1 s(  0.39%)p99.99( 99.39%)d 0.45(  0.18%)
                                                  f 0.10(  0.04%)
                                         0.0000 -0.0623  0.0032  0.0000  0.0000
                                         0.1843 -0.0045  0.0008  0.9720 -0.0236
                                         0.0044 -0.1204 -0.0131  0.0013 -0.0000
                                        -0.0000 -0.0078 -0.0000 -0.0410 -0.0002
                                        -0.0000 -0.0000  0.0045 -0.0012 -0.0015
                                         0.0038  0.0198 -0.0000 -0.0000  0.0000
                                        -0.0000
               ( 50.13%)   0.7081* C  2 s(  1.07%)p91.97( 98.71%)d 0.16(  0.17%)
                                                  f 0.04(  0.04%)
                                         0.0000  0.1036 -0.0022 -0.0000 -0.0000
                                         0.1842 -0.0045  0.0008  0.9720 -0.0236
                                         0.0044 -0.0869 -0.0141  0.0004 -0.0000
                                        -0.0000  0.0078  0.0000  0.0410  0.0002
                                         0.0000  0.0000 -0.0021  0.0013 -0.0003
                                         0.0037  0.0198 -0.0000 -0.0000  0.0000
                                        -0.0000
   6. (1.95890) BD ( 4) C  1- C  2
               ( 37.82%)   0.6150* C  1 s(  9.63%)p 9.37( 90.20%)d 0.02(  0.15%)
                                                  f 0.00(  0.02%)
                                         0.0000 -0.3093  0.0245  0.0000  0.0000
                                         0.1532 -0.0037  0.0007 -0.1638  0.0040
                                        -0.0007 -0.9187 -0.0869  0.0115 -0.0000
                                        -0.0000 -0.0065 -0.0000  0.0069  0.0000
                                         0.0000  0.0000  0.0371 -0.0080 -0.0137
                                         0.0031 -0.0033  0.0000  0.0000  0.0000
                                         0.0000
               ( 62.18%)   0.7885* C  2 s( 69.80%)p 0.43( 30.17%)d 0.00(  0.02%)
                                                  f 0.00(  0.00%)
                                         0.0000  0.8354 -0.0121 -0.0000 -0.0000
                                         0.1520 -0.0037  0.0007 -0.1629  0.0040
                                        -0.0007 -0.4921 -0.0992  0.0004 -0.0000
                                        -0.0000  0.0064  0.0000 -0.0069 -0.0000
                                        -0.0000 -0.0000 -0.0076  0.0092  0.0013
                                         0.0031 -0.0033  0.0000  0.0000  0.0000
                                         0.0000
 ---------------- non-Lewis ----------------------------------------------------
   7. (0.00218) BD*( 1) C  1- C  2
               ( 50.46%)   0.7104* C  1 s(  0.19%)p99.99( 99.60%)d 0.96(  0.18%)
                                                  f 0.22(  0.04%)
                                         0.0000  0.0428 -0.0047 -0.0000 -0.0000
                                         0.9692 -0.0235  0.0044 -0.1593  0.0039
                                        -0.0007  0.1742  0.0152 -0.0023  0.0000
                                         0.0000 -0.0409 -0.0002  0.0067  0.0000
                                         0.0000  0.0000 -0.0073  0.0014  0.0028
                                         0.0197 -0.0032  0.0000  0.0000  0.0000
                                         0.0000
               ( 49.54%)  -0.7038* C  2 s(  2.54%)p38.21( 97.24%)d 0.07(  0.17%)
                                                  f 0.02(  0.04%)
                                         0.0000 -0.1595  0.0019  0.0000  0.0000
                                         0.9695 -0.0235  0.0044 -0.1595  0.0039
                                        -0.0007  0.0788  0.0179  0.0002  0.0000
                                         0.0000  0.0409  0.0002 -0.0067 -0.0000
                                        -0.0000 -0.0000  0.0007 -0.0017 -0.0005
                                         0.0197 -0.0032  0.0000  0.0000  0.0000
                                         0.0000
   8. (0.04189) BD*( 2) C  1- C  2
               ( 37.19%)   0.6099* C  1 s( 89.20%)p 0.12( 10.66%)d 0.00(  0.11%)
                                                  f 0.00(  0.03%)
                                         0.0000  0.9444  0.0101  0.0000  0.0000
                                         0.0184 -0.0004  0.0001  0.0177 -0.0004
                                         0.0001 -0.3211  0.0523  0.0131  0.0000
                                         0.0000 -0.0008 -0.0000 -0.0007 -0.0000
                                        -0.0000 -0.0000  0.0322  0.0048 -0.0184
                                         0.0004  0.0004 -0.0000  0.0000  0.0000
                                        -0.0000
               ( 62.81%)  -0.7925* C  2 s( 25.98%)p 2.84( 73.72%)d 0.01(  0.24%)
                                                  f 0.00(  0.05%)
                                         0.0000  0.5091  0.0240  0.0000  0.0000
                                         0.0168 -0.0004  0.0001  0.0196 -0.0005
                                         0.0001  0.8579  0.0185 -0.0177  0.0000
                                         0.0000  0.0007  0.0000  0.0008  0.0000
                                        -0.0000 -0.0000  0.0492 -0.0017  0.0231
                                         0.0003  0.0004  0.0000 -0.0000  0.0000
                                        -0.0000
   9. (0.00127) BD*( 3) C  1- C  2
               ( 50.13%)   0.7081* C  1 s(  0.39%)p99.99( 99.39%)d 0.45(  0.18%)
                                                  f 0.10(  0.04%)
                                         0.0000  0.0623 -0.0032 -0.0000 -0.0000
                                        -0.1843  0.0045 -0.0008 -0.9720  0.0236
                                        -0.0044  0.1204  0.0131 -0.0013  0.0000
                                         0.0000  0.0078  0.0000  0.0410  0.0002
                                         0.0000  0.0000 -0.0045  0.0012  0.0015
                                        -0.0038 -0.0198  0.0000  0.0000 -0.0000
                                         0.0000
               ( 49.87%)  -0.7062* C  2 s(  1.07%)p91.97( 98.71%)d 0.16(  0.17%)
                                                  f 0.04(  0.04%)
                                         0.0000 -0.1036  0.0022  0.0000  0.0000
                                        -0.1842  0.0045 -0.0008 -0.9720  0.0236
                                        -0.0044  0.0869  0.0141 -0.0004  0.0000
                                         0.0000 -0.0078 -0.0000 -0.0410 -0.0002
                                        -0.0000 -0.0000  0.0021 -0.0013  0.0003
                                        -0.0037 -0.0198  0.0000  0.0000 -0.0000
                                         0.0000
  10. (0.04113) BD*( 4) C  1- C  2
               ( 62.18%)   0.7885* C  1 s(  9.63%)p 9.37( 90.20%)d 0.02(  0.15%)
                                                  f 0.00(  0.02%)
                                         0.0000  0.3093 -0.0245 -0.0000 -0.0000
                                        -0.1532  0.0037 -0.0007  0.1638 -0.0040
                                         0.0007  0.9187  0.0869 -0.0115  0.0000
                                         0.0000  0.0065  0.0000 -0.0069 -0.0000
                                        -0.0000 -0.0000 -0.0371  0.0080  0.0137
                                        -0.0031  0.0033 -0.0000 -0.0000 -0.0000
                                        -0.0000
               ( 37.82%)  -0.6150* C  2 s( 69.80%)p 0.43( 30.17%)d 0.00(  0.02%)
                                                  f 0.00(  0.00%)
                                         0.0000 -0.8354  0.0121  0.0000  0.0000
                                        -0.1520  0.0037 -0.0007  0.1629 -0.0040
                                         0.0007  0.4921  0.0992 -0.0004  0.0000
                                         0.0000 -0.0064 -0.0000  0.0069  0.0000
                                         0.0000  0.0000  0.0076 -0.0092 -0.0013
                                        -0.0031  0.0033 -0.0000 -0.0000 -0.0000
                                        -0.0000
  11. (0.00000) RY ( 1) C  1            s( 39.73%)p 0.79( 31.37%)d 0.68( 26.96%)
                                                  f 0.05(  1.95%)
  12. (0.00000) RY ( 2) C  1            s( 18.78%)p 2.05( 38.42%)d 1.35( 25.30%)
                                                  f 0.93( 17.50%)
  13. (0.00000) RY ( 3) C  1            s( 44.55%)p 0.35( 15.61%)d 0.89( 39.77%)
                                                  f 0.00(  0.07%)
  14. (0.00000) RY ( 4) C  1            s( 30.30%)p 0.69( 20.97%)d 1.49( 45.11%)
                                                  f 0.12(  3.62%)
  15. (0.00000) RY ( 5) C  1            s( 44.61%)p 0.58( 25.96%)d 0.52( 23.14%)
                                                  f 0.14(  6.28%)
  16. (0.00000) RY ( 6) C  1            s( 38.57%)p 0.68( 26.07%)d 0.91( 34.94%)
                                                  f 0.01(  0.42%)
  17. (0.00000) RY ( 7) C  1            s( 67.53%)p 0.21( 14.22%)d 0.01(  0.81%)
                                                  f 0.26( 17.44%)
  18. (0.00000) RY ( 8) C  1            s(  0.00%)p 1.00( 68.61%)d 0.34( 23.31%)
                                                  f 0.12(  8.08%)
  19. (0.00000) RY ( 9) C  1            s( 16.53%)p 1.64( 27.08%)d 0.22(  3.71%)
                                                  f 3.19( 52.67%)
  20. (0.00000) RY (10) C  1            s(  0.00%)p 1.00( 33.27%)d 1.65( 54.96%)
                                                  f 0.35( 11.77%)
  21. (0.00000) RY (11) C  1            s(  0.00%)p 1.00( 76.29%)d 0.31( 23.46%)
                                                  f 0.00(  0.25%)
  22. (0.00000) RY (12) C  1            s(  0.00%)p 1.00( 49.79%)d 0.33( 16.51%)
                                                  f 0.68( 33.70%)
  23. (0.00000) RY (13) C  1            s(  0.00%)p 1.00( 87.04%)d 0.14( 12.60%)
                                                  f 0.00(  0.36%)
  24. (0.00000) RY (14) C  1            s(  0.00%)p 1.00(  6.97%)d 5.66( 39.40%)
                                                  f 7.70( 53.63%)
  25. (0.00000) RY (15) C  1            s(  0.00%)p 1.00( 15.61%)d 5.21( 81.32%)
                                                  f 0.20(  3.07%)
  26. (0.00000) RY (16) C  1            s(  0.00%)p 1.00( 59.24%)d 0.66( 39.28%)
                                                  f 0.02(  1.48%)
  27. (0.00000) RY (17) C  1            s(  0.00%)p 1.00(  0.70%)d84.10( 59.19%)
                                                  f56.97( 40.10%)
  28. (0.00000) RY (18) C  1            s(  0.00%)p 1.00(  2.91%)d17.06( 49.61%)
                                                  f16.33( 47.49%)
  29. (0.00000) RY (19) C  1            s(  0.00%)p 0.00(  0.00%)d 1.00( 94.04%)
                                                  f 0.06(  5.96%)
  30. (0.00000) RY (20) C  1            s(  0.00%)p 0.00(  0.00%)d 1.00( 16.52%)
                                                  f 5.05( 83.48%)
  31. (0.00000) RY (21) C  1            s(  0.00%)p 0.00(  0.00%)d 1.00( 89.44%)
                                                  f 0.12( 10.56%)
  32. (0.00000) RY (22) C  1            s(  0.00%)p 0.00(  0.00%)d 0.00(  0.00%)
                                                  f 1.00(100.00%)
  33. (0.00000) RY (23) C  1            s(  0.00%)p 0.00(  0.00%)d 1.00(100.00%)
                                                  f 0.00(  0.00%)
  34. (0.00000) RY (24) C  1            s(  0.00%)p 0.00(  0.00%)d 0.00(  0.00%)
                                                  f 1.00(100.00%)
  35. (0.00000) RY (25) C  1            s(  0.00%)p 0.00(  0.00%)d 1.00(100.00%)
                                                  f 0.00(  0.00%)
  36. (0.00000) RY (26) C  1            s(  0.00%)p 0.00(  0.00%)d 0.00(  0.00%)
                                                  f 1.00(100.00%)
  37. (0.00000) RY ( 1) C  2            s( 39.73%)p 0.79( 31.37%)d 0.68( 26.96%)
                                                  f 0.05(  1.95%)
  38. (0.00000) RY ( 2) C  2            s( 18.78%)p 2.05( 38.42%)d 1.35( 25.30%)
                                                  f 0.93( 17.50%)
  39. (0.00000) RY ( 3) C  2            s( 35.43%)p 0.45( 15.84%)d 1.26( 44.53%)
                                                  f 0.12(  4.21%)
  40. (0.00000) RY ( 4) C  2            s( 34.83%)p 0.58( 20.17%)d 1.20( 41.87%)
                                                  f 0.09(  3.12%)
  41. (0.00000) RY ( 5) C  2            s( 82.77%)p 0.15( 12.09%)d 0.06(  5.06%)
                                                  f 0.00(  0.08%)
  42. (0.00000) RY ( 6) C  2            s( 19.53%)p 1.83( 35.82%)d 1.06( 20.64%)
                                                  f 1.23( 24.02%)
  43. (0.00000) RY ( 7) C  2            s( 67.56%)p 0.22( 14.67%)d 0.01(  0.35%)
                                                  f 0.26( 17.41%)
  44. (0.00000) RY ( 8) C  2            s(  0.00%)p 1.00( 53.71%)d 0.53( 28.65%)
                                                  f 0.33( 17.64%)
  45. (0.00000) RY ( 9) C  2            s(  0.00%)p 1.00( 41.78%)d 0.84( 35.25%)
                                                  f 0.55( 22.97%)
  46. (0.00000) RY (10) C  2            s(  0.00%)p 1.00( 57.42%)d 0.66( 38.04%)
                                                  f 0.08(  4.54%)
  47. (0.00000) RY (11) C  2            s(  1.97%)p15.88( 31.32%)d17.77( 35.04%)
                                                  f16.05( 31.67%)
  48. (0.00000) RY (12) C  2            s(  0.00%)p 1.00( 40.36%)d 1.46( 58.91%)
                                                  f 0.02(  0.73%)
  49. (0.00000) RY (13) C  2            s(  0.00%)p 1.00( 89.51%)d 0.02(  1.78%)
                                                  f 0.10(  8.71%)
  50. (0.00000) RY (14) C  2            s(  0.00%)p 1.00( 17.39%)d 4.31( 74.95%)
                                                  f 0.44(  7.67%)
  51. (0.00000) RY (15) C  2            s(  0.00%)p 1.00( 13.45%)d 1.02( 13.76%)
                                                  f 5.41( 72.79%)
  52. (0.00000) RY (16) C  2            s(  0.00%)p 1.00( 81.18%)d 0.21( 17.28%)
                                                  f 0.02(  1.54%)
  53. (0.00000) RY (17) C  2            s(  0.00%)p 1.00(  2.45%)d14.00( 34.32%)
                                                  f25.80( 63.23%)
  54. (0.00000) RY (18) C  2            s(  0.00%)p 1.00(  3.19%)d30.30( 96.55%)
                                                  f 0.08(  0.26%)
  55. (0.00000) RY (19) C  2            s(  0.00%)p 0.00(  0.00%)d 1.00( 99.30%)
                                                  f 0.01(  0.70%)
  56. (0.00000) RY (20) C  2            s(  0.00%)p 0.00(  0.00%)d 1.00( 59.06%)
                                                  f 0.69( 40.94%)
  57. (0.00000) RY (21) C  2            s(  0.00%)p 0.00(  0.00%)d 1.00( 41.61%)
                                                  f 1.40( 58.39%)
  58. (0.00000) RY (22) C  2            s(  0.00%)p 0.00(  0.01%)d 1.00(  0.19%)
                                                  f99.99( 99.80%)
  59. (0.00000) RY (23) C  2            s(  0.00%)p 0.00(  0.00%)d 0.00(  0.00%)
                                                  f 1.00(100.00%)
  60. (0.00000) RY (24) C  2            s(  0.00%)p 0.00(  0.00%)d 1.00(100.00%)
                                                  f 0.00(  0.00%)
  61. (0.00000) RY (25) C  2            s(  0.00%)p 0.00(  0.00%)d 1.00(100.00%)
                                                  f 0.00(  0.00%)
  62. (0.00000) RY (26) C  2            s(  0.00%)p 0.00(  0.00%)d 0.00(  0.00%)
                                                  f 1.00(100.00%)


 NHO DIRECTIONALITY AND BOND BENDING (deviation from line of nuclear centers at
                                      the position of maximum hybrid amplitude)

         [Thresholds for printing:  angular deviation  >  1.0 degree]
                                    p- or d-character  > 25.0%
                                    orbital occupancy  >  0.10e

                        Line of Centers        Hybrid 1             Hybrid 2
                        ---------------  -------------------  ------------------
           NBO            Theta   Phi    Theta   Phi    Dev   Theta   Phi    Dev
 ===============================================================================
   3. BD ( 1) C  1- C  2  180.0    0.0   101.0  170.7  79.0    91.2  170.7  91.2
   4. BD ( 2) C  1- C  2  180.0    0.0     --     --    --      1.9   49.4   1.9
   5. BD ( 3) C  1- C  2  180.0    0.0    97.6   79.3  82.4    92.3   79.3  92.3
   6. BD ( 4) C  1- C  2  180.0    0.0    13.9  133.1 166.1     5.0  313.0   5.0


 SECOND ORDER PERTURBATION THEORY ANALYSIS OF FOCK MATRIX IN NBO BASIS

     Threshold for printing:   0.50 kcal/mol
                                                          E(2) E(NL)-E(L) F(L,NL)
      Donor (L) NBO              Acceptor (NL) NBO      kcal/mol   a.u.    a.u.
 ===============================================================================

 within unit  1
    3. BD ( 1) C  1- C  2       8. BD*( 2) C  1- C  2      1.49    0.82   0.031
    3. BD ( 1) C  1- C  2      10. BD*( 4) C  1- C  2      1.52    0.23   0.017
    4. BD ( 2) C  1- C  2       8. BD*( 2) C  1- C  2      3.57    1.23   0.059
    4. BD ( 2) C  1- C  2      10. BD*( 4) C  1- C  2     16.47    0.63   0.091
    5. BD ( 3) C  1- C  2       8. BD*( 2) C  1- C  2      0.97    0.82   0.025
    5. BD ( 3) C  1- C  2      10. BD*( 4) C  1- C  2      0.63    0.22   0.011
    6. BD ( 4) C  1- C  2       7. BD*( 1) C  1- C  2      1.30    0.49   0.023
    6. BD ( 4) C  1- C  2       8. BD*( 2) C  1- C  2     25.73    0.93   0.138
    6. BD ( 4) C  1- C  2      10. BD*( 4) C  1- C  2     11.85    0.33   0.056
    6. BD ( 4) C  1- C  2      12. RY ( 2) C  1            0.86    3.51   0.049
    6. BD ( 4) C  1- C  2      13. RY ( 3) C  1            0.55    6.29   0.052
    6. BD ( 4) C  1- C  2      17. RY ( 7) C  1            0.98    9.29   0.085
    6. BD ( 4) C  1- C  2      38. RY ( 2) C  2            0.88    3.51   0.050
    6. BD ( 4) C  1- C  2      41. RY ( 5) C  2            0.65    7.88   0.064
    6. BD ( 4) C  1- C  2      43. RY ( 7) C  2            0.94    7.35   0.074


 NATURAL BOND ORBITALS (Summary):

                                                     Principal Delocalizations
           NBO                 Occupancy    Energy   (geminal,vicinal,remote)
 ===============================================================================
 Molecular unit  1  (C2)
 ------ Lewis --------------------------------------
    1. CR ( 1) C  1             2.00000   -10.34428
    2. CR ( 1) C  2             2.00000   -10.34428
    3. BD ( 1) C  1- C  2       1.99751    -0.34184  10(g),8(g)
    4. BD ( 2) C  1- C  2       1.95857    -0.74368  10(g),8(g)
    5. BD ( 3) C  1- C  2       1.99854    -0.33917  8(g),10(g)
    6. BD ( 4) C  1- C  2       1.95890    -0.44986  8(g),10(g),7(g),17(g),43(g)
                                                     38(g),12(g),41(g),13(g)
 ------ non-Lewis ----------------------------------
    7. BD*( 1) C  1- C  2       0.00218     0.04232
    8. BD*( 2) C  1- C  2       0.04189     0.48248
    9. BD*( 3) C  1- C  2       0.00127     0.04217
   10. BD*( 4) C  1- C  2       0.04113    -0.11617
   11. RY ( 1) C  1             0.00000     5.83988
   12. RY ( 2) C  1             0.00000     3.06246
   13. RY ( 3) C  1             0.00000     5.83570
   14. RY ( 4) C  1             0.00000     3.95066
   15. RY ( 5) C  1             0.00000     2.18077
   16. RY ( 6) C  1             0.00000     1.78414
   17. RY ( 7) C  1             0.00000     8.83852
   18. RY ( 8) C  1             0.00000     2.05960
   19. RY ( 9) C  1             0.00000     2.46812
   20. RY (10) C  1             0.00000     2.01353
   21. RY (11) C  1             0.00000     1.52240
   22. RY (12) C  1             0.00000     1.51267
   23. RY (13) C  1             0.00000     0.64770
   24. RY (14) C  1             0.00000     2.10557
   25. RY (15) C  1             0.00000     2.68883
   26. RY (16) C  1             0.00000     0.99361
   27. RY (17) C  1             0.00000     2.16591
   28. RY (18) C  1             0.00000     3.01074
   29. RY (19) C  1             0.00000     2.51701
   30. RY (20) C  1             0.00000     2.94461
   31. RY (21) C  1             0.00000     1.20169
   32. RY (22) C  1             0.00000     2.69362
   33. RY (23) C  1             0.00000     0.85741
   34. RY (24) C  1             0.00000     2.69362
   35. RY (25) C  1             0.00000     2.85979
   36. RY (26) C  1             0.00000     2.94612
   37. RY ( 1) C  2             0.00000     5.83988
   38. RY ( 2) C  2             0.00000     3.06246
   39. RY ( 3) C  2             0.00000     2.31909
   40. RY ( 4) C  2             0.00000     4.62849
   41. RY ( 5) C  2             0.00000     7.42667
   42. RY ( 6) C  2             0.00000     2.14686
   43. RY ( 7) C  2             0.00000     6.89690
   44. RY ( 8) C  2             0.00000     2.33417
   45. RY ( 9) C  2             0.00000     2.57389
   46. RY (10) C  2             0.00000     1.59476
   47. RY (11) C  2             0.00000     1.63990
   48. RY (12) C  2             0.00000     1.00518
   49. RY (13) C  2             0.00000     1.05370
   50. RY (14) C  2             0.00000     2.43751
   51. RY (15) C  2             0.00000     2.23934
   52. RY (16) C  2             0.00000     0.79450
   53. RY (17) C  2             0.00000     1.95962
   54. RY (18) C  2             0.00000     2.72782
   55. RY (19) C  2             0.00000     2.49312
   56. RY (20) C  2             0.00000     1.72856
   57. RY (21) C  2             0.00000     2.44180
   58. RY (22) C  2             0.00000     2.69353
   59. RY (23) C  2             0.00000     2.69362
   60. RY (24) C  2             0.00000     2.68794
   61. RY (25) C  2             0.00000     1.02924
   62. RY (26) C  2             0.00000     2.94613
          -------------------------------
                 Total Lewis   11.91352  ( 99.2793%)
           Valence non-Lewis    0.08648  (  0.7206%)
           Rydberg non-Lewis    0.00001  (  0.0001%)
          -------------------------------
               Total unit  1   12.00000  (100.0000%)
              Charge unit  1    0.00000

 $CHOOSE
   BOND Q 1 2 END
 $END

 NBO analysis completed in 0.09 CPU seconds (0 wall seconds)
 Maximum scratch memory used by NBO was 496356 words (3.79 MB)
 Maximum scratch memory used by G16NBO was 14241 words (0.11 MB)

 Opening RunExU unformatted file "/home/oyanez/Gaussian/coms/Gau-203891.EUF"
 Read unf file /home/oyanez/Gaussian/coms/Gau-203891.EUF:
 Label Gaussian matrix elements                                         IVers= 1 NLab= 2 Version=ES64L-G16RevB.01
 Title 1_SiLi-0000 E=0.000000                                          
 NAtoms=     2 NBasis=    62 NBsUse=    62 ICharg=     0 Multip=     1 NE=    12 Len12L=8 Len4L=8 IOpCl= 0 ICGU= -1
 GAUSSIAN SCALARS                    NI= 1 NR= 1 NTot=       1 LenBuf=    2 NRI=1 N=    1000
 NPA CHARGES                         NI= 0 NR= 1 NTot=       2 LenBuf= 4000 NRI=1 N=       2
 Recovered energy= -75.8015831600     dipole=      0.000000000000     -0.000000000000     -0.000000000000
 Leave Link  612 at Tue Oct 25 22:28:13 2022, MaxMem=  1342177280 cpu:               3.2 elap:               0.4
 (Enter /home/lmod/software/Binaries/g16/B.01/l701.exe)
 ... and contract with generalized density number  0.
 Compute integral first derivatives.
   8 Symmetry operations used in ECPInt.
 ECPInt:  NShTT=     253 NPrTT=     864 LenC2=     254 LenP2D=     816.
 LDataN:  DoStor=T MaxTD1= 7 Len=  274
 Leave Link  701 at Tue Oct 25 22:28:14 2022, MaxMem=  1342177280 cpu:               1.4 elap:               0.2
 (Enter /home/lmod/software/Binaries/g16/B.01/l702.exe)
 L702 exits ... SP integral derivatives will be done elsewhere.
 Leave Link  702 at Tue Oct 25 22:28:14 2022, MaxMem=  1342177280 cpu:               0.2 elap:               0.0
 (Enter /home/lmod/software/Binaries/g16/B.01/l703.exe)
 Integral derivatives from FoFJK, PRISM(SPDF).
 Compute integral first derivatives, UseDBF=F ICtDFT=           0.
 Calling FoFJK, ICntrl=      2127 FMM=F ISym2X=1 I1Cent= 0 IOpClX= 0 NMat=1 NMatS=1 NMatT=0.
 FoFJK:  IHMeth= 1 ICntrl=    2127 DoSepK=F KAlg= 0 I1Cent=           0 FoldK=F
 IRaf=         0 NMat=       1 IRICut=       1 DoRegI=T DoRafI=F ISym2E= 1 IDoP0=0 IntGTp=1.
 FoFCou: FMM=F IPFlag=           0 FMFlag=      100000 FMFlg1=         800
         NFxFlg=           0 DoJE=F BraDBF=F KetDBF=F FulRan=T
         wScrn=  0.000000 ICntrl=      2127 IOpCl=  0 I1Cent=           0 NGrid=           0
         NMat0=    1 NMatS0=      1 NMatT0=    0 NMatD0=    1 NMtDS0=    0 NMtDT0=    0
 Petite list used in FoFCou.
 Leave Link  703 at Tue Oct 25 22:28:14 2022, MaxMem=  1342177280 cpu:               3.6 elap:               0.4
 (Enter /home/lmod/software/Binaries/g16/B.01/l716.exe)
 Dipole        = 8.87468518D-31-2.69630192D-33 0.00000000D+00
 ***** Axes restored to original set *****
 -------------------------------------------------------------------
 Center     Atomic                   Forces (Hartrees/Bohr)
 Number     Number              X              Y              Z
 -------------------------------------------------------------------
      1        6           0.038055100    0.000065777   -0.000011959
      2        6          -0.038055100   -0.000065777    0.000011959
 -------------------------------------------------------------------
 Cartesian Forces:  Max     0.038055100 RMS     0.021971156
 Leave Link  716 at Tue Oct 25 22:28:14 2022, MaxMem=  1342177280 cpu:               0.3 elap:               0.0
 (Enter /home/lmod/software/Binaries/g16/B.01/l103.exe)

 GradGradGradGradGradGradGradGradGradGradGradGradGradGradGradGradGradGrad
 Berny optimization.
 FormGI is forming the generalized inverse of G from B-inverse, IUseBI=4.
 Internal  Forces:  Max     0.038055158 RMS     0.038055158
 Search for a local minimum.
 Step number   1 out of a maximum of   20
 All quantities printed in internal units (Hartrees-Bohrs-Radians)
 RMS Force = .38055D-01 SwitMx=.10000D-02 MixMth= 1
 Mixed Optimization -- RFO/linear search
 Second derivative matrix not updated -- first step.
 The second derivative matrix:
                          R1
           R1           0.75350
 ITU=  0
     Eigenvalues ---    0.75350
 RFO step:  Lambda=-1.91707949D-03 EMin= 7.53500255D-01
 Linear search not attempted -- first point.
 Iteration  1 RMS(Cart)=  0.03562145 RMS(Int)=  0.00000000
 Iteration  2 RMS(Cart)=  0.00000000 RMS(Int)=  0.00000000
 ITry= 1 IFail=0 DXMaxC= 2.52D-02 DCOld= 1.00D+10 DXMaxT= 3.00D-01 DXLimC= 3.00D+00 Rises=F
 ClnCor:  largest displacement from symmetrization is 8.88D-16 for atom     2.
 Variable       Old X    -DE/DX   Delta X   Delta X   Delta X     New X
                                 (Linear)    (Quad)   (Total)
    R1        2.40525  -0.03806   0.00000  -0.05038  -0.05038   2.35487
         Item               Value     Threshold  Converged?
 Maximum Force            0.038055     0.000450     NO 
 RMS     Force            0.038055     0.000300     NO 
 Maximum Displacement     0.025188     0.001800     NO 
 RMS     Displacement     0.035621     0.001200     NO 
 Predicted change in Energy=-9.609723D-04
 Lowest energy point so far.  Saving SCF results.
 GradGradGradGradGradGradGradGradGradGradGradGradGradGradGradGradGradGrad

 Leave Link  103 at Tue Oct 25 22:28:14 2022, MaxMem=  1342177280 cpu:               0.1 elap:               0.0
 (Enter /home/lmod/software/Binaries/g16/B.01/l202.exe)
                          Input orientation:                          
 ---------------------------------------------------------------------
 Center     Atomic      Atomic             Coordinates (Angstroms)
 Number     Number       Type             X           Y           Z
 ---------------------------------------------------------------------
      1          6           0        0.042029   -0.000877   -0.000604
      2          6           0        1.288171    0.001277   -0.000996
 ---------------------------------------------------------------------
 Stoichiometry    C2
 Framework group  D*H[C*(C.C)]
 Deg. of freedom     1
 Full point group                 D*H     NOp   8
 RotChk:  IX=0 Diff= 1.40D-16
 Largest Abelian subgroup         D2H     NOp   8
 Largest concise Abelian subgroup C2      NOp   2
                         Standard orientation:                         
 ---------------------------------------------------------------------
 Center     Atomic      Atomic             Coordinates (Angstroms)
 Number     Number       Type             X           Y           Z
 ---------------------------------------------------------------------
      1          6           0       -0.000000    0.000000    0.623072
      2          6           0        0.000000    0.000000   -0.623072
 ---------------------------------------------------------------------
 Rotational constants (GHZ):           0.0000000          54.2412288          54.2412288
 Leave Link  202 at Tue Oct 25 22:28:14 2022, MaxMem=  1342177280 cpu:               0.1 elap:               0.0
 (Enter /home/lmod/software/Binaries/g16/B.01/l301.exe)
 Standard basis: def2TZVP (5D, 7F)
 Ernie: Thresh=  0.10000D-02 Tol=  0.10000D-05 Strict=F.
 There are    17 symmetry adapted cartesian basis functions of AG  symmetry.
 There are     3 symmetry adapted cartesian basis functions of B1G symmetry.
 There are     8 symmetry adapted cartesian basis functions of B2G symmetry.
 There are     8 symmetry adapted cartesian basis functions of B3G symmetry.
 There are     3 symmetry adapted cartesian basis functions of AU  symmetry.
 There are    17 symmetry adapted cartesian basis functions of B1U symmetry.
 There are     8 symmetry adapted cartesian basis functions of B2U symmetry.
 There are     8 symmetry adapted cartesian basis functions of B3U symmetry.
 There are    14 symmetry adapted basis functions of AG  symmetry.
 There are     3 symmetry adapted basis functions of B1G symmetry.
 There are     7 symmetry adapted basis functions of B2G symmetry.
 There are     7 symmetry adapted basis functions of B3G symmetry.
 There are     3 symmetry adapted basis functions of AU  symmetry.
 There are    14 symmetry adapted basis functions of B1U symmetry.
 There are     7 symmetry adapted basis functions of B2U symmetry.
 There are     7 symmetry adapted basis functions of B3U symmetry.
    62 basis functions,   102 primitive gaussians,    72 cartesian basis functions
     6 alpha electrons        6 beta electrons
       nuclear repulsion energy        15.2874629964 Hartrees.
 IExCor= 1009 DFT=T Ex+Corr=PBE1PBE ExCW=0 ScaHFX=  0.250000
 ScaDFX=  0.750000  0.750000  1.000000  1.000000 ScalE2=  1.000000  1.000000
 IRadAn=      5 IRanWt=     -1 IRanGd=            0 ICorTp=0 IEmpDi=  4
 NAtoms=    2 NActive=    2 NUniq=    1 SFac= 4.00D+00 NAtFMM=   60 NAOKFM=F Big=F
 Integral buffers will be    131072 words long.
 Raffenetti 2 integral format.
 Two-electron integral symmetry is turned on.
 Leave Link  301 at Tue Oct 25 22:28:14 2022, MaxMem=  1342177280 cpu:               0.6 elap:               0.1
 (Enter /home/lmod/software/Binaries/g16/B.01/l302.exe)
 NPDir=0 NMtPBC=     1 NCelOv=     1 NCel=       1 NClECP=     1 NCelD=      1
         NCelK=      1 NCelE2=     1 NClLst=     1 CellRange=     0.0.
 One-electron integrals computed using PRISM.
 One-electron integral symmetry used in STVInt
   8 Symmetry operations used in ECPInt.
 ECPInt:  NShTT=     253 NPrTT=     864 LenC2=     254 LenP2D=     816.
 LDataN:  DoStor=T MaxTD1= 6 Len=  172
 NBasis=    62 RedAO= T EigKep=  1.53D-04  NBF=    14     3     7     7     3    14     7     7
 NBsUse=    62 1.00D-06 EigRej= -1.00D+00 NBFU=    14     3     7     7     3    14     7     7
 Precomputing XC quadrature grid using
 IXCGrd= 4 IRadAn=           5 IRanWt=          -1 IRanGd=           0 AccXCQ= 0.00D+00.
 Generated NRdTot=       0 NPtTot=           0 NUsed=           0 NTot=          32
 NSgBfM=    72    72    72    72    72 MxSgAt=     2 MxSgA2=     2.
 Leave Link  302 at Tue Oct 25 22:28:14 2022, MaxMem=  1342177280 cpu:               1.2 elap:               0.1
 (Enter /home/lmod/software/Binaries/g16/B.01/l303.exe)
 DipDrv:  MaxL=1.
 Leave Link  303 at Tue Oct 25 22:28:15 2022, MaxMem=  1342177280 cpu:               0.2 elap:               0.0
 (Enter /home/lmod/software/Binaries/g16/B.01/l401.exe)
 Initial guess from the checkpoint file:  "/home/oyanez/Gaussian/coms/Gau-203891.chk"
 B after Tr=    -0.000000    0.000000   -0.000000
         Rot=    1.000000    0.000000    0.000000    0.000000 Ang=   0.00 deg.
 Guess basis will be translated and rotated to current coordinates.
 JPrj=2 DoOrth=T DoCkMO=T.
 Initial guess orbital symmetries:
       Occupied  (SGG) (SGU) (SGG) (SGU) (PIU) (PIU)
       Virtual   (SGG) (PIG) (PIG) (SGG) (SGU) (PIU) (PIU) (SGG)
                 (PIG) (PIG) (SGU) (DLTG) (DLTG) (SGU) (PIU) (PIU)
                 (DLTU) (DLTU) (SGG) (SGU) (PIG) (PIG) (SGG) (PIU)
                 (PIU) (SGU) (PIG) (PIG) (SGG) (SGU) (DLTG) (DLTG)
                 (PIU) (PIU) (PHIU) (PHIU) (SGG) (PHIG) (PHIG)
                 (DLTG) (DLTG) (DLTU) (DLTU) (PIG) (PIG) (SGU)
                 (PIU) (PIU) (DLTU) (DLTU) (SGG) (PIG) (PIG) (SGU)
                 (SGG) (SGU)
 The electronic state of the initial guess is 1-SGG.
 Generating alternative initial guess.
 ExpMin= 9.52D-02 ExpMax= 1.36D+04 ExpMxC= 4.63D+02 IAcc=3 IRadAn=         5 AccDes= 0.00D+00
 Harris functional with IExCor= 1009 and IRadAn=       5 diagonalized for initial guess.
 HarFok:  IExCor= 1009 AccDes= 0.00D+00 IRadAn=         5 IDoV= 1 UseB2=F ITyADJ=14
 ICtDFT=  3500011 ScaDFX=  1.000000  1.000000  1.000000  1.000000
 FoFCou: FMM=F IPFlag=           0 FMFlag=      100000 FMFlg1=           0
         NFxFlg=           0 DoJE=T BraDBF=F KetDBF=T FulRan=T
         wScrn=  0.000000 ICntrl=       500 IOpCl=  0 I1Cent=   200000004 NGrid=           0
         NMat0=    1 NMatS0=      1 NMatT0=    0 NMatD0=    1 NMtDS0=    0 NMtDT0=    0
 Petite list used in FoFCou.
 Harris En= -75.8450912671393    
 Leave Link  401 at Tue Oct 25 22:28:15 2022, MaxMem=  1342177280 cpu:               2.1 elap:               0.2
 (Enter /home/lmod/software/Binaries/g16/B.01/l502.exe)
 Keep R1 ints in memory in symmetry-blocked form, NReq=10890769.
 FoFCou: FMM=F IPFlag=           0 FMFlag=           0 FMFlg1=           0
         NFxFlg=           0 DoJE=F BraDBF=F KetDBF=F FulRan=T
         wScrn=  0.000000 ICntrl=       600 IOpCl=  0 I1Cent=           0 NGrid=           0
         NMat0=    1 NMatS0=   1953 NMatT0=    0 NMatD0=    1 NMtDS0=    0 NMtDT0=    0
 Petite list used in FoFCou.
 Closed shell SCF:
 Using DIIS extrapolation, IDIIS=  1040.
 NGot=  1342177280 LenX=  1341907953 LenY=  1341902328
 Requested convergence on RMS density matrix=1.00D-08 within 128 cycles.
 Requested convergence on MAX density matrix=1.00D-06.
 Requested convergence on             energy=1.00D-06.
 No special actions if energy rises.
 Integral accuracy reduced to 1.0D-05 until final iterations.

 Cycle   1  Pass 0  IDiag  1:
 E= -75.8021607184380    
 DIIS: error= 3.76D-03 at cycle   1 NSaved=   1.
 NSaved= 1 IEnMin= 1 EnMin= -75.8021607184380     IErMin= 1 ErrMin= 3.76D-03
 ErrMax= 3.76D-03  0.00D+00 EMaxC= 1.00D-01 BMatC= 4.33D-04 BMatP= 4.33D-04
 IDIUse=3 WtCom= 9.62D-01 WtEn= 3.76D-02
 Coeff-Com:  0.100D+01
 Coeff-En:   0.100D+01
 Coeff:      0.100D+01
 Gap=     0.101 Goal=   None    Shift=    0.000
 GapD=    0.101 DampG=1.000 DampE=1.000 DampFc=1.0000 IDamp=-1.
 RMSDP=6.23D-04 MaxDP=1.17D-02              OVMax= 1.33D-02

 Cycle   2  Pass 0  IDiag  1:
 E= -75.8024538356558     Delta-E=       -0.000293117218 Rises=F Damp=F
 DIIS: error= 1.96D-03 at cycle   2 NSaved=   2.
 NSaved= 2 IEnMin= 2 EnMin= -75.8024538356558     IErMin= 2 ErrMin= 1.96D-03
 ErrMax= 1.96D-03  0.00D+00 EMaxC= 1.00D-01 BMatC= 1.11D-04 BMatP= 4.33D-04
 IDIUse=3 WtCom= 9.80D-01 WtEn= 1.96D-02
 Coeff-Com:  0.298D+00 0.702D+00
 Coeff-En:   0.000D+00 0.100D+01
 Coeff:      0.292D+00 0.708D+00
 Gap=     0.084 Goal=   None    Shift=    0.000
 RMSDP=1.74D-04 MaxDP=3.00D-03 DE=-2.93D-04 OVMax= 4.66D-03

 Cycle   3  Pass 0  IDiag  1:
 E= -75.8025597013867     Delta-E=       -0.000105865731 Rises=F Damp=F
 DIIS: error= 4.99D-04 at cycle   3 NSaved=   3.
 NSaved= 3 IEnMin= 3 EnMin= -75.8025597013867     IErMin= 3 ErrMin= 4.99D-04
 ErrMax= 4.99D-04  0.00D+00 EMaxC= 1.00D-01 BMatC= 6.30D-06 BMatP= 1.11D-04
 IDIUse=3 WtCom= 9.95D-01 WtEn= 4.99D-03
 Coeff-Com: -0.108D-01 0.180D+00 0.831D+00
 Coeff-En:   0.000D+00 0.000D+00 0.100D+01
 Coeff:     -0.107D-01 0.179D+00 0.832D+00
 Gap=     0.084 Goal=   None    Shift=    0.000
 RMSDP=2.61D-05 MaxDP=2.99D-04 DE=-1.06D-04 OVMax= 1.28D-03

 Cycle   4  Pass 0  IDiag  1:
 E= -75.8025670795134     Delta-E=       -0.000007378127 Rises=F Damp=F
 DIIS: error= 3.32D-05 at cycle   4 NSaved=   4.
 NSaved= 4 IEnMin= 4 EnMin= -75.8025670795134     IErMin= 4 ErrMin= 3.32D-05
 ErrMax= 3.32D-05  0.00D+00 EMaxC= 1.00D-01 BMatC= 2.85D-08 BMatP= 6.30D-06
 IDIUse=1 WtCom= 1.00D+00 WtEn= 0.00D+00
 Coeff-Com: -0.330D-03-0.235D-01-0.309D-01 0.105D+01
 Coeff:     -0.330D-03-0.235D-01-0.309D-01 0.105D+01
 Gap=     0.084 Goal=   None    Shift=    0.000
 RMSDP=3.09D-06 MaxDP=3.44D-05 DE=-7.38D-06 OVMax= 6.66D-05

 Initial convergence to 1.0D-05 achieved.  Increase integral accuracy.
 Cycle   5  Pass 1  IDiag  1:
 E= -75.8025672318492     Delta-E=       -0.000000152336 Rises=F Damp=F
 DIIS: error= 2.24D-06 at cycle   1 NSaved=   1.
 NSaved= 1 IEnMin= 1 EnMin= -75.8025672318492     IErMin= 1 ErrMin= 2.24D-06
 ErrMax= 2.24D-06  0.00D+00 EMaxC= 1.00D-01 BMatC= 1.46D-10 BMatP= 1.46D-10
 IDIUse=1 WtCom= 1.00D+00 WtEn= 0.00D+00
 Coeff-Com:  0.100D+01
 Coeff:      0.100D+01
 Gap=     0.084 Goal=   None    Shift=    0.000
 RMSDP=3.09D-06 MaxDP=3.44D-05 DE=-1.52D-07 OVMax= 7.23D-06

 Cycle   6  Pass 1  IDiag  1:
 E= -75.8025672319689     Delta-E=       -0.000000000120 Rises=F Damp=F
 DIIS: error= 1.04D-06 at cycle   2 NSaved=   2.
 NSaved= 2 IEnMin= 2 EnMin= -75.8025672319689     IErMin= 2 ErrMin= 1.04D-06
 ErrMax= 1.04D-06  0.00D+00 EMaxC= 1.00D-01 BMatC= 4.85D-11 BMatP= 1.46D-10
 IDIUse=1 WtCom= 1.00D+00 WtEn= 0.00D+00
 Coeff-Com:  0.358D+00 0.642D+00
 Coeff:      0.358D+00 0.642D+00
 Gap=     0.084 Goal=   None    Shift=    0.000
 RMSDP=1.14D-07 MaxDP=1.98D-06 DE=-1.20D-10 OVMax= 2.87D-06

 Cycle   7  Pass 1  IDiag  1:
 E= -75.8025672320227     Delta-E=       -0.000000000054 Rises=F Damp=F
 DIIS: error= 2.62D-07 at cycle   3 NSaved=   3.
 NSaved= 3 IEnMin= 3 EnMin= -75.8025672320227     IErMin= 3 ErrMin= 2.62D-07
 ErrMax= 2.62D-07  0.00D+00 EMaxC= 1.00D-01 BMatC= 1.38D-12 BMatP= 4.85D-11
 IDIUse=1 WtCom= 1.00D+00 WtEn= 0.00D+00
 Coeff-Com:  0.794D-01 0.208D+00 0.713D+00
 Coeff:      0.794D-01 0.208D+00 0.713D+00
 Gap=     0.084 Goal=   None    Shift=    0.000
 RMSDP=9.01D-09 MaxDP=1.32D-07 DE=-5.38D-11 OVMax= 3.36D-07

 SCF Done:  E(RPBE1PBE) =  -75.8025672320     A.U. after    7 cycles
            NFock=  7  Conv=0.90D-08     -V/T= 2.0039
 KE= 7.550747851225D+01 PE=-2.068055802785D+02 EE= 4.020807153780D+01
 Leave Link  502 at Tue Oct 25 22:28:15 2022, MaxMem=  1342177280 cpu:               2.7 elap:               0.3
 (Enter /home/lmod/software/Binaries/g16/B.01/l701.exe)
 ... and contract with generalized density number  0.
 Compute integral first derivatives.
   8 Symmetry operations used in ECPInt.
[...]
                                                  f 1.00(100.00%)
  59. (0.00000) RY (23) C  2            s(  0.00%)p 0.00(  0.00%)d 0.00(  0.00%)
                                                  f 1.00(100.00%)
  60. (0.00000) RY (24) C  2            s(  0.00%)p 0.00(  0.00%)d 1.00(100.00%)
                                                  f 0.00(  0.00%)
  61. (0.00000) RY (25) C  2            s(  0.00%)p 0.00(  0.00%)d 1.00(100.00%)
                                                  f 0.00(  0.00%)
  62. (0.00000) RY (26) C  2            s(  0.00%)p 0.00(  0.00%)d 0.00(  0.00%)
                                                  f 1.00(100.00%)


 NHO DIRECTIONALITY AND BOND BENDING (deviation from line of nuclear centers at
                                      the position of maximum hybrid amplitude)

         [Thresholds for printing:  angular deviation  >  1.0 degree]
                                    p- or d-character  > 25.0%
                                    orbital occupancy  >  0.10e

                        Line of Centers        Hybrid 1             Hybrid 2
                        ---------------  -------------------  ------------------
           NBO            Theta   Phi    Theta   Phi    Dev   Theta   Phi    Dev
 ===============================================================================
   3. BD ( 1) C  1- C  2  180.0    0.0    74.3   13.5 105.7    62.3   13.3  62.3
   4. BD ( 2) C  1- C  2  180.0    0.0   131.8   80.7  48.2    91.9   80.7  91.9
   5. BD ( 3) C  1- C  2  180.0    0.0    76.0  144.4 104.0    46.4  144.7  46.4
   6. BD ( 4) C  1- C  2  180.0    0.0   137.5  273.8  42.5    45.9  273.8  45.9


 SECOND ORDER PERTURBATION THEORY ANALYSIS OF FOCK MATRIX IN NBO BASIS

     Threshold for printing:   0.50 kcal/mol
                                                          E(2) E(NL)-E(L) F(L,NL)
      Donor (L) NBO              Acceptor (NL) NBO      kcal/mol   a.u.    a.u.
 ===============================================================================

 within unit  1
    3. BD ( 1) C  1- C  2       8. BD*( 2) C  1- C  2      3.10    0.44   0.033
    3. BD ( 1) C  1- C  2       9. BD*( 3) C  1- C  2      5.30    0.36   0.039
    3. BD ( 1) C  1- C  2      10. BD*( 4) C  1- C  2     11.19    0.83   0.086
    3. BD ( 1) C  1- C  2      16. RY ( 6) C  1            0.62   10.67   0.073
    3. BD ( 1) C  1- C  2      45. RY ( 9) C  2            0.54    6.77   0.054
    4. BD ( 2) C  1- C  2       7. BD*( 1) C  1- C  2      1.06    0.42   0.019
    4. BD ( 2) C  1- C  2       8. BD*( 2) C  1- C  2      1.51    0.51   0.025
    4. BD ( 2) C  1- C  2      10. BD*( 4) C  1- C  2      7.57    0.90   0.074
    5. BD ( 3) C  1- C  2       7. BD*( 1) C  1- C  2      4.31    0.40   0.037
    5. BD ( 3) C  1- C  2       8. BD*( 2) C  1- C  2      1.45    0.49   0.024
    5. BD ( 3) C  1- C  2       9. BD*( 3) C  1- C  2      2.84    0.41   0.030
    5. BD ( 3) C  1- C  2      10. BD*( 4) C  1- C  2     12.99    0.88   0.095
    5. BD ( 3) C  1- C  2      16. RY ( 6) C  1            0.64   10.72   0.074
    5. BD ( 3) C  1- C  2      45. RY ( 9) C  2            0.55    6.82   0.055
    6. BD ( 4) C  1- C  2       7. BD*( 1) C  1- C  2      3.93    0.66   0.045
    6. BD ( 4) C  1- C  2       8. BD*( 2) C  1- C  2      2.04    0.75   0.035
    6. BD ( 4) C  1- C  2       9. BD*( 3) C  1- C  2      4.33    0.67   0.048


 NATURAL BOND ORBITALS (Summary):

                                                     Principal Delocalizations
           NBO                 Occupancy    Energy   (geminal,vicinal,remote)
 ===============================================================================
 Molecular unit  1  (C2)
 ------ Lewis --------------------------------------
    1. CR ( 1) C  1             2.00000   -10.33787
    2. CR ( 1) C  2             2.00000   -10.33787
    3. BD ( 1) C  1- C  2       1.98152    -0.36134  10(g),9(g),8(g),16(g),45(g)
    4. BD ( 2) C  1- C  2       1.98203    -0.43733  10(g),8(g),7(g)
    5. BD ( 3) C  1- C  2       1.97635    -0.41068  10(g),7(g),9(g),8(g),16(g)
                                                     45(g)
    6. BD ( 4) C  1- C  2       1.95680    -0.67134  9(g),7(g),8(g)
 ------ non-Lewis ----------------------------------
    7. BD*( 1) C  1- C  2       0.01727    -0.01539
    8. BD*( 2) C  1- C  2       0.01589     0.07441
    9. BD*( 3) C  1- C  2       0.02187    -0.00527
   10. BD*( 4) C  1- C  2       0.04827     0.46537
   11. RY ( 1) C  1             0.00000     5.78639
   12. RY ( 2) C  1             0.00000     2.58513
   13. RY ( 3) C  1             0.00000     4.79096
   14. RY ( 4) C  1             0.00000     5.48756
   15. RY ( 5) C  1             0.00000     1.63344
   16. RY ( 6) C  1             0.00000    10.31139
   17. RY ( 7) C  1             0.00000     1.97817
   18. RY ( 8) C  1             0.00000     1.48188
   19. RY ( 9) C  1             0.00000     2.25262
   20. RY (10) C  1             0.00000     1.16914
   21. RY (11) C  1             0.00000     1.91736
   22. RY (12) C  1             0.00000     1.00187
   23. RY (13) C  1             0.00000     2.94007
   24. RY (14) C  1             0.00000     2.83612
   25. RY (15) C  1             0.00000     2.66599
   26. RY (16) C  1             0.00000     1.54975
   27. RY (17) C  1             0.00000     1.93503
   28. RY (18) C  1             0.00000     0.58779
   29. RY (19) C  1             0.00000     2.65634
   30. RY (20) C  1             0.00000     2.92333
   31. RY (21) C  1             0.00000     2.95919
   32. RY (22) C  1             0.00000     0.80998
   33. RY (23) C  1             0.00000     2.69729
   34. RY (24) C  1             0.00000     1.11661
   35. RY (25) C  1             0.00000     2.60956
   36. RY (26) C  1             0.00000     2.96634
   37. RY ( 1) C  2             0.00000     5.78639
   38. RY ( 2) C  2             0.00000     2.58513
   39. RY ( 3) C  2             0.00000     3.84036
   40. RY ( 4) C  2             0.00000     6.82809
   41. RY ( 5) C  2             0.00000     1.63908
   42. RY ( 6) C  2             0.00000     4.34568
   43. RY ( 7) C  2             0.00000     2.55296
   44. RY ( 8) C  2             0.00000     2.61771
   45. RY ( 9) C  2             0.00000     6.41248
   46. RY (10) C  2             0.00000     2.83214
   47. RY (11) C  2             0.00000     1.54986
   48. RY (12) C  2             0.00000     1.12282
   49. RY (13) C  2             0.00000     0.85957
   50. RY (14) C  2             0.00000     3.09757
   51. RY (15) C  2             0.00000     2.13437
   52. RY (16) C  2             0.00000     1.93465
   53. RY (17) C  2             0.00000     1.38338
   54. RY (18) C  2             0.00000     1.34742
   55. RY (19) C  2             0.00000     2.83389
   56. RY (20) C  2             0.00000     0.95155
   57. RY (21) C  2             0.00000     2.90702
   58. RY (22) C  2             0.00000     2.69729
   59. RY (23) C  2             0.00000     2.69736
   60. RY (24) C  2             0.00000     1.23494
   61. RY (25) C  2             0.00000     2.49123
   62. RY (26) C  2             0.00000     2.96634
          -------------------------------
                 Total Lewis   11.89669  ( 99.1391%)
           Valence non-Lewis    0.10330  (  0.8608%)
           Rydberg non-Lewis    0.00001  (  0.0001%)
          -------------------------------
               Total unit  1   12.00000  (100.0000%)
              Charge unit  1    0.00000

 $CHOOSE
   BOND Q 1 2 END
 $END

 NBO analysis completed in 0.09 CPU seconds (1 wall second)
 Maximum scratch memory used by NBO was 496356 words (3.79 MB)
 Maximum scratch memory used by G16NBO was 14241 words (0.11 MB)

 Opening RunExU unformatted file "/home/oyanez/Gaussian/coms/Gau-203891.EUF"
 Read unf file /home/oyanez/Gaussian/coms/Gau-203891.EUF:
 Label Gaussian matrix elements                                         IVers= 1 NLab= 2 Version=ES64L-G16RevB.01
 Title 1_SiLi-0000 E=0.000000                                          
 NAtoms=     2 NBasis=    62 NBsUse=    62 ICharg=     0 Multip=     1 NE=    12 Len12L=8 Len4L=8 IOpCl= 0 ICGU= -1
 GAUSSIAN SCALARS                    NI= 1 NR= 1 NTot=       1 LenBuf=    2 NRI=1 N=    1000
 NPA CHARGES                         NI= 0 NR= 1 NTot=       2 LenBuf= 4000 NRI=1 N=       2
 Recovered energy= -75.8025672320     dipole=     -0.000000000000     -0.000000000000      0.000000000000
 Leave Link  612 at Tue Oct 25 22:28:20 2022, MaxMem=  1342177280 cpu:               2.9 elap:               0.3
 (Enter /home/lmod/software/Binaries/g16/B.01/l701.exe)
 ... and contract with generalized density number  0.
 Compute integral second derivatives.
   8 Symmetry operations used in ECPInt.
 ECPInt:  NShTT=     253 NPrTT=     864 LenC2=     254 LenP2D=     816.
 LDataN:  DoStor=T MaxTD1= 8 Len=  415
 Leave Link  701 at Tue Oct 25 22:28:20 2022, MaxMem=  1342177280 cpu:               1.5 elap:               0.2
 (Enter /home/lmod/software/Binaries/g16/B.01/l702.exe)
 L702 exits ... SP integral derivatives will be done elsewhere.
 Leave Link  702 at Tue Oct 25 22:28:20 2022, MaxMem=  1342177280 cpu:               0.2 elap:               0.0
 (Enter /home/lmod/software/Binaries/g16/B.01/l703.exe)
 Integral derivatives from FoFJK, PRISM(SPDF).
 Compute integral second derivatives, UseDBF=F ICtDFT=           0.
 Calling FoFJK, ICntrl=    100127 FMM=F ISym2X=1 I1Cent= 0 IOpClX= 0 NMat=1 NMatS=1 NMatT=0.
 FoFJK:  IHMeth= 1 ICntrl=  100127 DoSepK=F KAlg= 0 I1Cent=           0 FoldK=F
 IRaf=         0 NMat=       1 IRICut=       1 DoRegI=T DoRafI=F ISym2E= 1 IDoP0=0 IntGTp=1.
 FoFCou: FMM=F IPFlag=           0 FMFlag=      100000 FMFlg1=         800
         NFxFlg=           0 DoJE=F BraDBF=F KetDBF=F FulRan=T
         wScrn=  0.000000 ICntrl=    100127 IOpCl=  0 I1Cent=           0 NGrid=           0
         NMat0=    1 NMatS0=      1 NMatT0=    0 NMatD0=    1 NMtDS0=    0 NMtDT0=    0
 Petite list used in FoFCou.
 Leave Link  703 at Tue Oct 25 22:28:21 2022, MaxMem=  1342177280 cpu:               8.0 elap:               0.8
 (Enter /home/lmod/software/Binaries/g16/B.01/l716.exe)
 Dipole        =-2.95822839D-31-1.92592994D-34 2.22044605D-16
 Polarizability= 4.44017441D+01-6.78557511D-15 4.44017441D+01
                -9.58733059D-13-3.02012243D-13 3.35305538D+01
 Full mass-weighted force constant matrix:
 Low frequencies ---   -5.2887   -5.2887    0.0009    0.0009    0.0013 1902.1463
 Diagonal vibrational polarizability:
        0.0000000       0.0000000       0.0000000
 Harmonic frequencies (cm**-1), IR intensities (KM/Mole), Raman scattering
 activities (A**4/AMU), depolarization ratios for plane and unpolarized
 incident light, reduced masses (AMU), force constants (mDyne/A),
 and normal coordinates:
                      1
                     SGG
 Frequencies --   1902.1463
 Red. masses --     12.0000
 Frc consts  --     25.5811
 IR Inten    --      0.0000
  Atom  AN      X      Y      Z
     1   6    -0.00   0.00   0.71
     2   6     0.00  -0.00  -0.71

 -------------------
 - Thermochemistry -
 -------------------
 Temperature   298.150 Kelvin.  Pressure   1.00000 Atm.
 Atom     1 has atomic number  6 and mass  12.00000
 Atom     2 has atomic number  6 and mass  12.00000
 Molecular mass:    24.00000 amu.
 Principal axes and moments of inertia in atomic units:
                           1         2         3
     Eigenvalues --    -0.00000  33.27250  33.27250
           X           -0.00000  -0.70658   0.70764
           Y            0.00000   0.70764   0.70658
           Z            1.00000  -0.00000   0.00000
 This molecule is a prolate symmetric top.
 Rotational symmetry number  2.
 Rotational temperature (Kelvin)      2.60317
 Rotational constant (GHZ):          54.241229
 Zero-point vibrational energy      11377.4 (Joules/Mol)
                                    2.71925 (Kcal/Mol)
 Vibrational temperatures:   2736.76
          (Kelvin)
 
 Zero-point correction=                           0.004333 (Hartree/Particle)
 Thermal correction to Energy=                    0.006695
 Thermal correction to Enthalpy=                  0.007639
 Thermal correction to Gibbs Free Energy=        -0.013978
 Sum of electronic and zero-point Energies=            -75.798234
 Sum of electronic and thermal Energies=               -75.795872
 Sum of electronic and thermal Enthalpies=             -75.794928
 Sum of electronic and thermal Free Energies=          -75.816545
 
                     E (Thermal)             CV                S
                      KCal/Mol        Cal/Mol-Kelvin    Cal/Mol-Kelvin
 Total                    4.201              4.985             45.497
 Electronic               0.000              0.000              0.000
 Translational            0.889              2.981             35.464
 Rotational               0.592              1.987             10.031
 Vibrational              2.720              0.017              0.002
                       Q            Log10(Q)             Ln(Q)
 Total Bot       0.268838D+07          6.429490         14.804449
 Total V=0       0.264678D+09          8.422718         19.394025
 Vib (Bot)       0.101582D-01         -1.993183         -4.589473
 Vib (V=0)       0.100010D+01          0.000045          0.000103
 Electronic      0.100000D+01          0.000000          0.000000
 Translational   0.462137D+07          6.664771         15.346202
 Rotational      0.572667D+02          1.757903          4.047720
 ***** Axes restored to original set *****
 -------------------------------------------------------------------
 Center     Atomic                   Forces (Hartrees/Bohr)
 Number     Number              X              Y              Z
 -------------------------------------------------------------------
      1        6          -0.000055591   -0.000000096    0.000000017
      2        6           0.000055591    0.000000096   -0.000000017
 -------------------------------------------------------------------
 Cartesian Forces:  Max     0.000055591 RMS     0.000032096
 Force constants in Cartesian coordinates: 
                1             2             3             4             5 
      1  0.821541D+00
      2  0.142002D-02 -0.389661D-05
      3 -0.258186D-03  0.000000D+00 -0.626994D-05
      4 -0.821541D+00 -0.142002D-02  0.258186D-03  0.821541D+00
      5 -0.142002D-02  0.389661D-05  0.000000D+00  0.142002D-02 -0.389661D-05
      6  0.258186D-03  0.000000D+00  0.626994D-05 -0.258186D-03  0.000000D+00
                6 
      6 -0.626994D-05
 FormGI is forming the generalized inverse of G from B-inverse, IUseBI=4.
 Force constants in internal coordinates: 
                1 
      1  0.821543D+00
 Leave Link  716 at Tue Oct 25 22:28:21 2022, MaxMem=  1342177280 cpu:               0.4 elap:               0.1
 (Enter /home/lmod/software/Binaries/g16/B.01/l103.exe)

 GradGradGradGradGradGradGradGradGradGradGradGradGradGradGradGradGradGrad
 Berny optimization.
 Red2BG is reusing G-inverse.
 Internal  Forces:  Max     0.000055591 RMS     0.000055591
 Search for a local minimum.
 Step number   1 out of a maximum of    2
 All quantities printed in internal units (Hartrees-Bohrs-Radians)
 Second derivative matrix not updated -- analytic derivatives used.
 The second derivative matrix:
                          R1
           R1           0.82154
 ITU=  0
     Eigenvalues ---    0.82154
 Angle between quadratic step and forces=   0.00 degrees.
 Linear search not attempted -- first point.
 Iteration  1 RMS(Cart)=  0.00004785 RMS(Int)=  0.00000000
 Iteration  2 RMS(Cart)=  0.00000000 RMS(Int)=  0.00000000
 ITry= 1 IFail=0 DXMaxC= 3.38D-05 DCOld= 1.00D+10 DXMaxT= 3.00D-01 DXLimC= 3.00D+00 Rises=F
 ClnCor:  largest displacement from symmetrization is 4.44D-16 for atom     2.
 Variable       Old X    -DE/DX   Delta X   Delta X   Delta X     New X
                                 (Linear)    (Quad)   (Total)
    R1        2.35487   0.00006   0.00000   0.00007   0.00007   2.35494
         Item               Value     Threshold  Converged?
 Maximum Force            0.000056     0.000450     YES
 RMS     Force            0.000056     0.000300     YES
 Maximum Displacement     0.000034     0.001800     YES
 RMS     Displacement     0.000048     0.001200     YES
 Predicted change in Energy=-1.880841D-09
 Optimization completed.
    -- Stationary point found.
                           ----------------------------
                           !   Optimized Parameters   !
                           ! (Angstroms and Degrees)  !
 --------------------------                            --------------------------
 ! Name  Definition              Value          Derivative Info.                !
 --------------------------------------------------------------------------------
 ! R1    R(1,2)                  1.2461         -DE/DX =    0.0001              !
 --------------------------------------------------------------------------------
 GradGradGradGradGradGradGradGradGradGradGradGradGradGradGradGradGradGrad

 Leave Link  103 at Tue Oct 25 22:28:21 2022, MaxMem=  1342177280 cpu:               0.1 elap:               0.0
 (Enter /home/lmod/software/Binaries/g16/B.01/l9999.exe)
 Dipole is zero, so no output in dipole orientation.

 ----------------------------------------------------------------------

 Electric dipole moment (input orientation):
 (Debye = 10**-18 statcoulomb cm , SI units = C m)
                  (au)            (Debye)         (10**-30 SI)
   Tot        0.000000D+00      0.000000D+00      0.000000D+00
   x          0.000000D+00      0.000000D+00      0.000000D+00
   y          0.000000D+00      0.000000D+00      0.000000D+00
   z          0.000000D+00      0.000000D+00      0.000000D+00

 Dipole polarizability, Alpha (input orientation).
 (esu units = cm**3 , SI units = C**2 m**2 J**-1)
 Alpha(0;0):
               (au)            (10**-24 esu)      (10**-40 SI)
   iso        0.407780D+02      0.604268D+01      0.672339D+01
   aniso      0.108712D+02      0.161094D+01      0.179242D+01
   xx         0.335306D+02      0.496872D+01      0.552845D+01
   yx        -0.187905D-01     -0.278446D-02     -0.309813D-02
   yy         0.444017D+02      0.657965D+01      0.732085D+01
   zx         0.341645D-02      0.506266D-03      0.563297D-03
   zy         0.000000D+00      0.000000D+00      0.000000D+00
   zz         0.444017D+02      0.657966D+01      0.732086D+01

 ----------------------------------------------------------------------
 1\1\GINC-SN010\Freq\RPBE1PBE\def2TZVP\C2\OYANEZ\25-Oct-2022\0\\#P Geom
 =AllCheck Guess=TCheck SCRF=Check GenChk RPBE1PBE/def2TZVP Freq\\1_SiL
 i-0000 E=0.000000\\0,1\C,0.0420289842,-0.0008769612,-0.0006041889\C,1.
 2881710158,0.0012769612,-0.0009958111\\Version=ES64L-G16RevB.01\State=
 1-SGG\HF=-75.8025672\RMSD=3.582e-09\RMSF=3.210e-05\ZeroPoint=0.0043334
 \Thermal=0.0066948\Dipole=0.,0.,0.\DipoleDeriv=0.,0.,0.,0.,0.,0.,0.,0.
 ,0.,0.,0.,0.,0.,0.,0.,0.,0.,0.\Polar=33.5305874,-0.0187905,44.4017116,
 0.0034165,0.0000059,44.401743\Quadrupole=1.6505738,-0.8252833,-0.82529
 05,0.0042795,-0.0007781,-0.0000013\PG=D*H [C*(C1.C1)]\NImag=0\\0.82154
 089,0.00142002,-0.00000390,-0.00025819,-0.00000045,-0.00000627,-0.8215
 4089,-0.00142002,0.00025819,0.82154089,-0.00142002,0.00000390,0.000000
 45,0.00142002,-0.00000390,0.00025819,0.00000045,0.00000627,-0.00025819
 ,-0.00000045,-0.00000627\\0.00005559,0.00000010,-0.00000002,-0.0000555
 9,-0.00000010,0.00000002\\\@


 IN SO FAR AS QUANTUM MECHANICS IS CORRECT, CHEMICAL 
 QUESTIONS ARE PROBLEMS IN APPLIED MATHEMATICS.

                    -- EYRING, WALTER, & KIMBALL, 1944
 Job cpu time:       0 days  0 hours  0 minutes 34.4 seconds.
 Elapsed time:       0 days  0 hours  0 minutes  3.9 seconds.
 File lengths (MBytes):  RWF=    272 Int=      0 D2E=      0 Chk=     32 Scr=     32
 Normal termination of Gaussian 16 at Tue Oct 25 22:28:21 2022.
