 Entering Gaussian System, Link 0=/home/lmod/software/Binaries/g16/B.01/g16
 Input=Ethane.com
 Output=Ethane.log
 Initial command:
 /home/lmod/software/Binaries/g16/B.01/l1.exe "/home/oyanez/Gaussian/coms/Gau-203870.inp" -scrdir="/home/oyanez/Gaussian/coms/"
 Entering Link 1 = /home/lmod/software/Binaries/g16/B.01/l1.exe PID=    203890.
  
 Copyright (c) 1988-2017, Gaussian, Inc.  All Rights Reserved.
  
 This is part of the Gaussian(R) 16 program.  It is based on
 the Gaussian(R) 09 system (copyright 2009, Gaussian, Inc.),
 the Gaussian(R) 03 system (copyright 2003, Gaussian, Inc.),
 the Gaussian(R) 98 system (copyright 1998, Gaussian, Inc.),
 the Gaussian(R) 94 system (copyright 1995, Gaussian, Inc.),
 the Gaussian 92(TM) system (copyright 1992, Gaussian, Inc.),
 the Gaussian 90(TM) system (copyright 1990, Gaussian, Inc.),
 the Gaussian 88(TM) system (copyright 1988, Gaussian, Inc.),
 the Gaussian 86(TM) system (copyright 1986, Carnegie Mellon
 University), and the Gaussian 82(TM) system (copyright 1983,
 Carnegie Mellon University). Gaussian is a federally registered
 trademark of Gaussian, Inc.
  
 This software contains proprietary and confidential information,
 including trade secrets, belonging to Gaussian, Inc.
  
 This software is provided under written license and may be
 used, copied, transmitted, or stored only in accord with that
 written license.
  
 The following legend is applicable only to US Government
 contracts under FAR:
  
                    RESTRICTED RIGHTS LEGEND
  
 Use, reproduction and disclosure by the US Government is
 subject to restrictions as set forth in subparagraphs (a)
 and (c) of the Commercial Computer Software - Restricted
 Rights clause in FAR 52.227-19.
  
 Gaussian, Inc.
 340 Quinnipiac St., Bldg. 40, Wallingford CT 06492
  
  
 ---------------------------------------------------------------
 Warning -- This program may not be used in any manner that
 competes with the business of Gaussian, Inc. or will provide
 assistance to any competitor of Gaussian, Inc.  The licensee
 of this program is prohibited from giving any competitor of
 Gaussian, Inc. access to this program.  By using this program,
 the user acknowledges that Gaussian, Inc. is engaged in the
 business of creating and licensing software in the field of
 computational chemistry and represents and warrants to the
 licensee that it is not a competitor of Gaussian, Inc. and that
 it will not use this program in any manner prohibited above.
 ---------------------------------------------------------------
  

 Cite this work as:
 Gaussian 16, Revision B.01,
 M. J. Frisch, G. W. Trucks, H. B. Schlegel, G. E. Scuseria, 
 M. A. Robb, J. R. Cheeseman, G. Scalmani, V. Barone, 
 G. A. Petersson, H. Nakatsuji, X. Li, M. Caricato, A. V. Marenich, 
 J. Bloino, B. G. Janesko, R. Gomperts, B. Mennucci, H. P. Hratchian, 
 J. V. Ortiz, A. F. Izmaylov, J. L. Sonnenberg, D. Williams-Young, 
 F. Ding, F. Lipparini, F. Egidi, J. Goings, B. Peng, A. Petrone, 
 T. Henderson, D. Ranasinghe, V. G. Zakrzewski, J. Gao, N. Rega, 
 G. Zheng, W. Liang, M. Hada, M. Ehara, K. Toyota, R. Fukuda, 
 J. Hasegawa, M. Ishida, T. Nakajima, Y. Honda, O. Kitao, H. Nakai, 
 T. Vreven, K. Throssell, J. A. Montgomery, Jr., J. E. Peralta, 
 F. Ogliaro, M. J. Bearpark, J. J. Heyd, E. N. Brothers, K. N. Kudin, 
 V. N. Staroverov, T. A. Keith, R. Kobayashi, J. Normand, 
 K. Raghavachari, A. P. Rendell, J. C. Burant, S. S. Iyengar, 
 J. Tomasi, M. Cossi, J. M. Millam, M. Klene, C. Adamo, R. Cammi, 
 J. W. Ochterski, R. L. Martin, K. Morokuma, O. Farkas, 
 J. B. Foresman, and D. J. Fox, Gaussian, Inc., Wallingford CT, 2016.
 
 ******************************************
 Gaussian 16:  ES64L-G16RevB.01 20-Dec-2017
                25-Oct-2022 
 ******************************************
 %mem=10gb
 %nproc=10
 Will use up to   10 processors via shared memory.
 -----------------------------------------
 #p PBE1PBE/Def2TZVP Freq Opt pop=nbo6read
 -----------------------------------------
 1/18=20,19=15,26=3,38=1,163=2/1,3;
 2/9=110,12=2,17=6,18=5,40=1/2;
 3/5=44,7=101,11=2,25=1,30=1,71=1,74=-13/1,2,3;
 4//1;
 5/5=2,38=5/2;
 6/7=2,8=2,9=2,10=2,28=1,40=2,113=1,114=1,124=2103/1,12;
 7//1,2,3,16;
 1/18=20,19=15,26=3/3(2);
 2/9=110/2;
 99//99;
 2/9=110/2;
 3/5=44,7=101,11=2,25=1,30=1,71=1,74=-13/1,2,3;
 4/5=5,16=3,69=1/1;
 5/5=2,38=5/2;
 7//1,2,3,16;
 1/18=20,19=15,26=3/3(-5);
 2/9=110/2;
 6/7=2,8=2,9=2,10=2,19=2,28=1,40=2,113=1,114=1,124=2103/1,12;
 99/9=1/99;
 Leave Link    1 at Tue Oct 25 22:28:11 2022, MaxMem=  1342177280 cpu:               2.5 elap:               0.3
 (Enter /home/lmod/software/Binaries/g16/B.01/l101.exe)
 ----------------------
 1_SiLi-0000 E=0.000000
 ----------------------
 Symbolic Z-matrix:
 Charge =  0 Multiplicity = 1
 C                    -0.1045   -0.0012   -0.0005 
 C                     1.4344    0.0016   -0.001 
 H                    -0.4726    1.0351   -0.0004 
 H                    -0.4695   -0.5203    0.8977 
 H                    -0.4702   -0.5204   -0.8984 
 H                     1.8026   -1.0348   -0.0011 
 H                     1.8001    0.5207    0.8969 
 H                     1.7995    0.5207   -0.8992 
 
 ITRead=  0  0  0  0  0  0  0  0
 MicOpt= -1 -1 -1 -1 -1 -1 -1 -1
 NAtoms=      8 NQM=        8 NQMF=       0 NMMI=      0 NMMIF=      0
                NMic=       0 NMicF=      0.
                    Isotopes and Nuclear Properties:
 (Nuclear quadrupole moments (NQMom) in fm**2, nuclear magnetic moments (NMagM)
  in nuclear magnetons)

  Atom         1           2           3           4           5           6           7           8
 IAtWgt=          12          12           1           1           1           1           1           1
 AtmWgt=  12.0000000  12.0000000   1.0078250   1.0078250   1.0078250   1.0078250   1.0078250   1.0078250
 NucSpn=           0           0           1           1           1           1           1           1
 AtZEff=  -0.0000000  -0.0000000  -0.0000000  -0.0000000  -0.0000000  -0.0000000  -0.0000000  -0.0000000
 NQMom=    0.0000000   0.0000000   0.0000000   0.0000000   0.0000000   0.0000000   0.0000000   0.0000000
 NMagM=    0.0000000   0.0000000   2.7928460   2.7928460   2.7928460   2.7928460   2.7928460   2.7928460
 AtZNuc=   6.0000000   6.0000000   1.0000000   1.0000000   1.0000000   1.0000000   1.0000000   1.0000000
 Leave Link  101 at Tue Oct 25 22:28:12 2022, MaxMem=  1342177280 cpu:               2.4 elap:               0.3
 (Enter /home/lmod/software/Binaries/g16/B.01/l103.exe)

 GradGradGradGradGradGradGradGradGradGradGradGradGradGradGradGradGradGrad
 Berny optimization.
 Initialization pass.
                           ----------------------------
                           !    Initial Parameters    !
                           ! (Angstroms and Degrees)  !
 --------------------------                            --------------------------
 ! Name  Definition              Value          Derivative Info.                !
 --------------------------------------------------------------------------------
 ! R1    R(1,2)                  1.5389         estimate D2E/DX2                !
 ! R2    R(1,3)                  1.0997         estimate D2E/DX2                !
 ! R3    R(1,4)                  1.0998         estimate D2E/DX2                !
 ! R4    R(1,5)                  1.0998         estimate D2E/DX2                !
 ! R5    R(2,6)                  1.0999         estimate D2E/DX2                !
 ! R6    R(2,7)                  1.0997         estimate D2E/DX2                !
 ! R7    R(2,8)                  1.0998         estimate D2E/DX2                !
 ! A1    A(2,1,3)              109.4511         estimate D2E/DX2                !
 ! A2    A(2,1,4)              109.452          estimate D2E/DX2                !
 ! A3    A(2,1,5)              109.4578         estimate D2E/DX2                !
 ! A4    A(3,1,4)              109.4889         estimate D2E/DX2                !
 ! A5    A(3,1,5)              109.4896         estimate D2E/DX2                !
 ! A6    A(4,1,5)              109.4879         estimate D2E/DX2                !
 ! A7    A(1,2,6)              109.4543         estimate D2E/DX2                !
 ! A8    A(1,2,7)              109.4586         estimate D2E/DX2                !
 ! A9    A(1,2,8)              109.4569         estimate D2E/DX2                !
 ! A10   A(6,2,7)              109.4836         estimate D2E/DX2                !
 ! A11   A(6,2,8)              109.4849         estimate D2E/DX2                !
 ! A12   A(7,2,8)              109.489          estimate D2E/DX2                !
 ! D1    D(3,1,2,6)            180.0            estimate D2E/DX2                !
 ! D2    D(3,1,2,7)             60.0029         estimate D2E/DX2                !
 ! D3    D(3,1,2,8)            -60.0024         estimate D2E/DX2                !
 ! D4    D(4,1,2,6)             60.0024         estimate D2E/DX2                !
 ! D5    D(4,1,2,7)            -59.9947         estimate D2E/DX2                !
 ! D6    D(4,1,2,8)            180.0            estimate D2E/DX2                !
 ! D7    D(5,1,2,6)            -59.9981         estimate D2E/DX2                !
 ! D8    D(5,1,2,7)           -179.9952         estimate D2E/DX2                !
 ! D9    D(5,1,2,8)             59.9995         estimate D2E/DX2                !
 --------------------------------------------------------------------------------
 Trust Radius=3.00D-01 FncErr=1.00D-07 GrdErr=1.00D-06 EigMax=2.50D+02 EigMin=1.00D-04
 Number of steps in this run=     38 maximum allowed number of steps=    100.
 GradGradGradGradGradGradGradGradGradGradGradGradGradGradGradGradGradGrad

 Leave Link  103 at Tue Oct 25 22:28:12 2022, MaxMem=  1342177280 cpu:               0.1 elap:               0.0
 (Enter /home/lmod/software/Binaries/g16/B.01/l202.exe)
                          Input orientation:                          
 ---------------------------------------------------------------------
 Center     Atomic      Atomic             Coordinates (Angstroms)
 Number     Number       Type             X           Y           Z
 ---------------------------------------------------------------------
      1          6           0       -0.104500   -0.001200   -0.000500
      2          6           0        1.434400    0.001600   -0.001000
      3          1           0       -0.472600    1.035100   -0.000400
      4          1           0       -0.469500   -0.520300    0.897700
      5          1           0       -0.470200   -0.520400   -0.898400
      6          1           0        1.802600   -1.034800   -0.001100
      7          1           0        1.800100    0.520700    0.896900
      8          1           0        1.799500    0.520700   -0.899200
 ---------------------------------------------------------------------
                    Distance matrix (angstroms):
                    1          2          3          4          5
     1  C    0.000000
     2  C    1.538903   0.000000
     3  H    1.099734   2.169049   0.000000
     4  H    1.099751   2.169073   1.796069   0.000000
     5  H    1.099786   2.169173   1.796104   1.796100   0.000000
     6  H    2.169184   1.099862   3.075877   2.496996   2.497073
     7  H    2.169149   1.099739   2.496982   2.496951   3.075915
     8  H    2.169161   1.099785   2.496976   3.075856   2.497084
                    6          7          8
     6  H    0.000000
     7  H    1.796104   0.000000
     8  H    1.796155   1.796100   0.000000
 Stoichiometry    C2H6
 Framework group  C1[X(C2H6)]
 Deg. of freedom    18
 Full point group                 C1      NOp   1
 Largest Abelian subgroup         C1      NOp   1
 Largest concise Abelian subgroup C1      NOp   1
                         Standard orientation:                         
 ---------------------------------------------------------------------
 Center     Atomic      Atomic             Coordinates (Angstroms)
 Number     Number       Type             X           Y           Z
 ---------------------------------------------------------------------
      1          6           0       -0.769462   -0.000003   -0.000003
      2          6           0        0.769440   -0.000018   -0.000005
      3          1           0       -1.135686   -0.974126   -0.355503
      4          1           0       -1.135691    0.794916   -0.665910
      5          1           0       -1.135811    0.179226    1.021366
      6          1           0        1.135764    0.974199    0.355530
      7          1           0        1.135789   -0.179153   -1.021340
      8          1           0        1.135769   -0.794937    0.665902
 ---------------------------------------------------------------------
 Rotational constants (GHZ):          77.7210079          20.0065341          20.0064945
 Leave Link  202 at Tue Oct 25 22:28:12 2022, MaxMem=  1342177280 cpu:               0.1 elap:               0.0
 (Enter /home/lmod/software/Binaries/g16/B.01/l301.exe)
 Standard basis: def2TZVP (5D, 7F)
 Ernie: Thresh=  0.10000D-02 Tol=  0.10000D-05 Strict=F.
 There are   108 symmetry adapted cartesian basis functions of A   symmetry.
 There are    98 symmetry adapted basis functions of A   symmetry.
    98 basis functions,   150 primitive gaussians,   108 cartesian basis functions
     9 alpha electrons        9 beta electrons
       nuclear repulsion energy        42.0391584621 Hartrees.
 IExCor= 1009 DFT=T Ex+Corr=PBE1PBE ExCW=0 ScaHFX=  0.250000
 ScaDFX=  0.750000  0.750000  1.000000  1.000000 ScalE2=  1.000000  1.000000
 IRadAn=      5 IRanWt=     -1 IRanGd=            0 ICorTp=0 IEmpDi=  4
 NAtoms=    8 NActive=    8 NUniq=    8 SFac= 1.00D+00 NAtFMM=   60 NAOKFM=F Big=F
 Integral buffers will be    131072 words long.
 Raffenetti 2 integral format.
 Two-electron integral symmetry is turned on.
 Leave Link  301 at Tue Oct 25 22:28:12 2022, MaxMem=  1342177280 cpu:               0.5 elap:               0.1
 (Enter /home/lmod/software/Binaries/g16/B.01/l302.exe)
 NPDir=0 NMtPBC=     1 NCelOv=     1 NCel=       1 NClECP=     1 NCelD=      1
         NCelK=      1 NCelE2=     1 NClLst=     1 CellRange=     0.0.
 One-electron integrals computed using PRISM.
 One-electron integral symmetry used in STVInt
   1 Symmetry operations used in ECPInt.
 ECPInt:  NShTT=    1081 NPrTT=    2988 LenC2=    1081 LenP2D=    2751.
 LDataN:  DoStor=T MaxTD1= 6 Len=  172
 NBasis=    98 RedAO= T EigKep=  5.83D-04  NBF=    98
 NBsUse=    98 1.00D-06 EigRej= -1.00D+00 NBFU=    98
 Precomputing XC quadrature grid using
 IXCGrd= 4 IRadAn=           5 IRanWt=          -1 IRanGd=           0 AccXCQ= 0.00D+00.
 Generated NRdTot=       0 NPtTot=           0 NUsed=           0 NTot=          32
 NSgBfM=   108   108   108   108   108 MxSgAt=     8 MxSgA2=     8.
 Leave Link  302 at Tue Oct 25 22:28:12 2022, MaxMem=  1342177280 cpu:               1.3 elap:               0.2
 (Enter /home/lmod/software/Binaries/g16/B.01/l303.exe)
 DipDrv:  MaxL=1.
 Leave Link  303 at Tue Oct 25 22:28:12 2022, MaxMem=  1342177280 cpu:               0.2 elap:               0.0
 (Enter /home/lmod/software/Binaries/g16/B.01/l401.exe)
 ExpMin= 9.52D-02 ExpMax= 1.36D+04 ExpMxC= 4.63D+02 IAcc=3 IRadAn=         5 AccDes= 0.00D+00
 Harris functional with IExCor= 1009 and IRadAn=       5 diagonalized for initial guess.
 HarFok:  IExCor= 1009 AccDes= 0.00D+00 IRadAn=         5 IDoV= 1 UseB2=F ITyADJ=14
 ICtDFT=  3500011 ScaDFX=  1.000000  1.000000  1.000000  1.000000
 FoFCou: FMM=F IPFlag=           0 FMFlag=      100000 FMFlg1=           0
         NFxFlg=           0 DoJE=T BraDBF=F KetDBF=T FulRan=T
         wScrn=  0.000000 ICntrl=       500 IOpCl=  0 I1Cent=   200000004 NGrid=           0
         NMat0=    1 NMatS0=      1 NMatT0=    0 NMatD0=    1 NMtDS0=    0 NMtDT0=    0
 Petite list used in FoFCou.
 Harris En= -79.8335219400151    
 JPrj=0 DoOrth=F DoCkMO=F.
 Leave Link  401 at Tue Oct 25 22:28:13 2022, MaxMem=  1342177280 cpu:               3.1 elap:               0.3
 (Enter /home/lmod/software/Binaries/g16/B.01/l502.exe)
 Keep R1 ints in memory in canonical form, NReq=21118424.
 FoFCou: FMM=F IPFlag=           0 FMFlag=           0 FMFlg1=           0
         NFxFlg=           0 DoJE=F BraDBF=F KetDBF=F FulRan=T
         wScrn=  0.000000 ICntrl=       600 IOpCl=  0 I1Cent=           0 NGrid=           0
         NMat0=    1 NMatS0=   4851 NMatT0=    0 NMatD0=    1 NMtDS0=    0 NMtDT0=    0
 Symmetry not used in FoFCou.
 Two-electron integral symmetry not used.
 Closed shell SCF:
 Using DIIS extrapolation, IDIIS=  1040.
 NGot=  1342177280 LenX=  1330383140 LenY=  1330371035
 Requested convergence on RMS density matrix=1.00D-08 within 128 cycles.
 Requested convergence on MAX density matrix=1.00D-06.
 Requested convergence on             energy=1.00D-06.
 No special actions if energy rises.
 Integral accuracy reduced to 1.0D-05 until final iterations.

 Cycle   1  Pass 0  IDiag  1:
 E= -79.6258058410904    
 DIIS: error= 4.48D-02 at cycle   1 NSaved=   1.
 NSaved= 1 IEnMin= 1 EnMin= -79.6258058410904     IErMin= 1 ErrMin= 4.48D-02
 ErrMax= 4.48D-02  0.00D+00 EMaxC= 1.00D-01 BMatC= 1.20D-01 BMatP= 1.20D-01
 IDIUse=3 WtCom= 5.52D-01 WtEn= 4.48D-01
 Coeff-Com:  0.100D+01
 Coeff-En:   0.100D+01
 Coeff:      0.100D+01
 Gap=     0.335 Goal=   None    Shift=    0.000
 GapD=    0.335 DampG=1.000 DampE=0.500 DampFc=0.5000 IDamp=-1.
 Damping current iteration by 5.00D-01
 RMSDP=4.94D-03 MaxDP=7.18D-02              OVMax= 1.82D-01

 Cycle   2  Pass 0  IDiag  1:
 E= -79.6812580135530     Delta-E=       -0.055452172463 Rises=F Damp=T
 DIIS: error= 8.86D-03 at cycle   2 NSaved=   2.
 NSaved= 2 IEnMin= 2 EnMin= -79.6812580135530     IErMin= 2 ErrMin= 8.86D-03
 ErrMax= 8.86D-03  0.00D+00 EMaxC= 1.00D-01 BMatC= 4.27D-03 BMatP= 1.20D-01
 IDIUse=3 WtCom= 9.11D-01 WtEn= 8.86D-02
 Coeff-Com:  0.573D-01 0.943D+00
 Coeff-En:   0.117D+00 0.883D+00
 Coeff:      0.626D-01 0.937D+00
 Gap=     0.422 Goal=   None    Shift=    0.000
 RMSDP=6.88D-04 MaxDP=6.99D-03 DE=-5.55D-02 OVMax= 1.07D-01

 Cycle   3  Pass 0  IDiag  1:
 E= -79.7487122042688     Delta-E=       -0.067454190716 Rises=F Damp=F
 DIIS: error= 2.82D-03 at cycle   3 NSaved=   3.
 NSaved= 3 IEnMin= 3 EnMin= -79.7487122042688     IErMin= 3 ErrMin= 2.82D-03
 ErrMax= 2.82D-03  0.00D+00 EMaxC= 1.00D-01 BMatC= 2.84D-04 BMatP= 4.27D-03
 IDIUse=3 WtCom= 9.72D-01 WtEn= 2.82D-02
 Coeff-Com: -0.120D-01 0.140D+00 0.872D+00
 Coeff-En:   0.000D+00 0.000D+00 0.100D+01
 Coeff:     -0.117D-01 0.136D+00 0.875D+00
 Gap=     0.404 Goal=   None    Shift=    0.000
 RMSDP=1.45D-04 MaxDP=2.87D-03 DE=-6.75D-02 OVMax= 5.51D-03

 Cycle   4  Pass 0  IDiag  1:
 E= -79.7489674760950     Delta-E=       -0.000255271826 Rises=F Damp=F
 DIIS: error= 8.07D-04 at cycle   4 NSaved=   4.
 NSaved= 4 IEnMin= 4 EnMin= -79.7489674760950     IErMin= 4 ErrMin= 8.07D-04
 ErrMax= 8.07D-04  0.00D+00 EMaxC= 1.00D-01 BMatC= 1.73D-05 BMatP= 2.84D-04
 IDIUse=3 WtCom= 9.92D-01 WtEn= 8.07D-03
 Coeff-Com: -0.280D-02 0.269D-02 0.211D+00 0.789D+00
 Coeff-En:   0.000D+00 0.000D+00 0.000D+00 0.100D+01
 Coeff:     -0.278D-02 0.267D-02 0.210D+00 0.791D+00
 Gap=     0.404 Goal=   None    Shift=    0.000
 RMSDP=2.94D-05 MaxDP=3.88D-04 DE=-2.55D-04 OVMax= 1.49D-03

 Cycle   5  Pass 0  IDiag  1:
 E= -79.7489837187349     Delta-E=       -0.000016242640 Rises=F Damp=F
 DIIS: error= 2.86D-05 at cycle   5 NSaved=   5.
 NSaved= 5 IEnMin= 5 EnMin= -79.7489837187349     IErMin= 5 ErrMin= 2.86D-05
 ErrMax= 2.86D-05  0.00D+00 EMaxC= 1.00D-01 BMatC= 2.62D-08 BMatP= 1.73D-05
 IDIUse=1 WtCom= 1.00D+00 WtEn= 0.00D+00
 Coeff-Com:  0.495D-03-0.119D-02-0.111D-01-0.130D-01 0.102D+01
 Coeff:      0.495D-03-0.119D-02-0.111D-01-0.130D-01 0.102D+01
 Gap=     0.404 Goal=   None    Shift=    0.000
 RMSDP=2.08D-06 MaxDP=2.72D-05 DE=-1.62D-05 OVMax= 8.31D-05

 Initial convergence to 1.0D-05 achieved.  Increase integral accuracy.
 Cycle   6  Pass 1  IDiag  1:
 E= -79.7489830286312     Delta-E=        0.000000690104 Rises=F Damp=F
 DIIS: error= 1.20D-06 at cycle   1 NSaved=   1.
 NSaved= 1 IEnMin= 1 EnMin= -79.7489830286312     IErMin= 1 ErrMin= 1.20D-06
 ErrMax= 1.20D-06  0.00D+00 EMaxC= 1.00D-01 BMatC= 1.19D-10 BMatP= 1.19D-10
 IDIUse=1 WtCom= 1.00D+00 WtEn= 0.00D+00
 Coeff-Com:  0.100D+01
 Coeff:      0.100D+01
 Gap=     0.404 Goal=   None    Shift=    0.000
 RMSDP=2.08D-06 MaxDP=2.72D-05 DE= 6.90D-07 OVMax= 5.34D-06

 Cycle   7  Pass 1  IDiag  1:
 E= -79.7489830287469     Delta-E=       -0.000000000116 Rises=F Damp=F
 DIIS: error= 6.18D-07 at cycle   2 NSaved=   2.
 NSaved= 2 IEnMin= 2 EnMin= -79.7489830287469     IErMin= 2 ErrMin= 6.18D-07
 ErrMax= 6.18D-07  0.00D+00 EMaxC= 1.00D-01 BMatC= 3.39D-11 BMatP= 1.19D-10
 IDIUse=1 WtCom= 1.00D+00 WtEn= 0.00D+00
 Coeff-Com:  0.279D+00 0.721D+00
 Coeff:      0.279D+00 0.721D+00
 Gap=     0.404 Goal=   None    Shift=    0.000
 RMSDP=5.26D-08 MaxDP=1.18D-06 DE=-1.16D-10 OVMax= 2.67D-06

 Cycle   8  Pass 1  IDiag  1:
 E= -79.7489830287700     Delta-E=       -0.000000000023 Rises=F Damp=F
 DIIS: error= 3.33D-07 at cycle   3 NSaved=   3.
 NSaved= 3 IEnMin= 3 EnMin= -79.7489830287700     IErMin= 3 ErrMin= 3.33D-07
 ErrMax= 3.33D-07  0.00D+00 EMaxC= 1.00D-01 BMatC= 1.03D-11 BMatP= 3.39D-11
 IDIUse=1 WtCom= 1.00D+00 WtEn= 0.00D+00
 Coeff-Com: -0.374D-01 0.349D+00 0.688D+00
 Coeff:     -0.374D-01 0.349D+00 0.688D+00
 Gap=     0.404 Goal=   None    Shift=    0.000
 RMSDP=2.11D-08 MaxDP=4.22D-07 DE=-2.31D-11 OVMax= 8.06D-07

 Cycle   9  Pass 1  IDiag  1:
 E= -79.7489830287804     Delta-E=       -0.000000000010 Rises=F Damp=F
 DIIS: error= 1.10D-08 at cycle   4 NSaved=   4.
 NSaved= 4 IEnMin= 4 EnMin= -79.7489830287804     IErMin= 4 ErrMin= 1.10D-08
 ErrMax= 1.10D-08  0.00D+00 EMaxC= 1.00D-01 BMatC= 4.57D-15 BMatP= 1.03D-11
 IDIUse=1 WtCom= 1.00D+00 WtEn= 0.00D+00
 Coeff-Com: -0.395D-02 0.826D-02 0.292D-01 0.966D+00
 Coeff:     -0.395D-02 0.826D-02 0.292D-01 0.966D+00
 Gap=     0.404 Goal=   None    Shift=    0.000
 RMSDP=1.20D-09 MaxDP=1.05D-08 DE=-1.04D-11 OVMax= 3.43D-08

 SCF Done:  E(RPBE1PBE) =  -79.7489830288     A.U. after    9 cycles
            NFock=  9  Conv=0.12D-08     -V/T= 2.0069
 KE= 7.920371292604D+01 PE=-2.681562842194D+02 EE= 6.716442980248D+01
 Leave Link  502 at Tue Oct 25 22:28:14 2022, MaxMem=  1342177280 cpu:              14.4 elap:               1.6
 (Enter /home/lmod/software/Binaries/g16/B.01/l601.exe)
 Copying SCF densities to generalized density rwf, IOpCl= 0 IROHF=0.

 **********************************************************************

            Population analysis using the SCF Density.

 **********************************************************************

 Orbital symmetries:
       Occupied  (A) (A) (A) (A) (A) (A) (A) (A) (A)
       Virtual   (A) (A) (A) (A) (A) (A) (A) (A) (A) (A) (A) (A)
                 (A) (A) (A) (A) (A) (A) (A) (A) (A) (A) (A) (A)
                 (A) (A) (A) (A) (A) (A) (A) (A) (A) (A) (A) (A)
                 (A) (A) (A) (A) (A) (A) (A) (A) (A) (A) (A) (A)
                 (A) (A) (A) (A) (A) (A) (A) (A) (A) (A) (A) (A)
                 (A) (A) (A) (A) (A) (A) (A) (A) (A) (A) (A) (A)
                 (A) (A) (A) (A) (A) (A) (A) (A) (A) (A) (A) (A)
                 (A) (A) (A) (A) (A)
 The electronic state is 1-A.
 Alpha  occ. eigenvalues --  -10.20992 -10.20970  -0.77254  -0.62679  -0.44883
 Alpha  occ. eigenvalues --   -0.44883  -0.36910  -0.35367  -0.35365
 Alpha virt. eigenvalues --    0.05040   0.09326   0.12081   0.12081   0.13182
 Alpha virt. eigenvalues --    0.13183   0.19481   0.20992   0.24626   0.24626
 Alpha virt. eigenvalues --    0.25789   0.25789   0.40744   0.42560   0.43349
 Alpha virt. eigenvalues --    0.45547   0.45548   0.50686   0.50688   0.55987
 Alpha virt. eigenvalues --    0.57621   0.64295   0.64296   0.84795   0.84798
 Alpha virt. eigenvalues --    0.94262   1.03451   1.03451   1.05003   1.05004
 Alpha virt. eigenvalues --    1.11042   1.49823   1.50075   1.50075   1.53060
 Alpha virt. eigenvalues --    1.53291   1.54086   1.59766   1.59767   1.73529
 Alpha virt. eigenvalues --    1.74160   1.80519   1.80520   1.93517   1.93522
 Alpha virt. eigenvalues --    1.97830   2.14596   2.28962   2.32193   2.32194
 Alpha virt. eigenvalues --    2.33362   2.33363   2.40434   2.40441   2.53300
 Alpha virt. eigenvalues --    2.53302   2.58139   2.58140   2.65193   2.65197
 Alpha virt. eigenvalues --    2.68320   2.82926   2.96125   3.03466   3.03468
 Alpha virt. eigenvalues --    3.12528   3.12532   3.18604   3.22506   3.28480
 Alpha virt. eigenvalues --    3.32508   3.32513   3.50409   3.50562   3.50566
 Alpha virt. eigenvalues --    3.74063   3.74066   3.89784   3.89785   3.92653
 Alpha virt. eigenvalues --    4.26737   4.27160   4.27166   4.42615   4.42617
 Alpha virt. eigenvalues --    4.59464   4.75122  22.31096  22.34089
          Condensed to atoms (all electrons):
               1          2          3          4          5          6
     1  C    4.901013   0.339725   0.405285   0.405283   0.405276  -0.037444
     2  C    0.339725   4.901081  -0.037454  -0.037448  -0.037436   0.405261
     3  H    0.405285  -0.037454   0.569711  -0.025079  -0.025078   0.008106
     4  H    0.405283  -0.037448  -0.025079   0.569711  -0.025080  -0.005125
     5  H    0.405276  -0.037436  -0.025078  -0.025080   0.569705  -0.005125
     6  H   -0.037444   0.405261   0.008106  -0.005125  -0.005125   0.569740
     7  H   -0.037439   0.405286  -0.005124  -0.005125   0.008104  -0.025083
     8  H   -0.037443   0.405274  -0.005125   0.008106  -0.005124  -0.025079
               7          8
     1  C   -0.037439  -0.037443
     2  C    0.405286   0.405274
     3  H   -0.005124  -0.005125
     4  H   -0.005125   0.008106
     5  H    0.008104  -0.005124
     6  H   -0.025083  -0.025079
     7  H    0.569696  -0.025080
     8  H   -0.025080   0.569711
 Mulliken charges:
               1
     1  C   -0.344255
     2  C   -0.344290
     3  H    0.114757
     4  H    0.114757
     5  H    0.114758
     6  H    0.114749
     7  H    0.114765
     8  H    0.114759
 Sum of Mulliken charges =  -0.00000
 Mulliken charges with hydrogens summed into heavy atoms:
               1
     1  C    0.000017
     2  C   -0.000017
 Electronic spatial extent (au):  <R**2>=            109.9077
 Charge=             -0.0000 electrons
 Dipole moment (field-independent basis, Debye):
    X=             -0.0000    Y=             -0.0000    Z=             -0.0001  Tot=              0.0001
 Quadrupole moment (field-independent basis, Debye-Ang):
   XX=            -16.0056   YY=            -14.7670   ZZ=            -14.7668
   XY=             -0.0001   XZ=             -0.0002   YZ=             -0.0000
 Traceless Quadrupole moment (field-independent basis, Debye-Ang):
   XX=             -0.8258   YY=              0.4128   ZZ=              0.4130
   XY=             -0.0001   XZ=             -0.0002   YZ=             -0.0000
 Octapole moment (field-independent basis, Debye-Ang**2):
  XXX=             -0.0001  YYY=             -0.0003  ZZZ=             -0.0003  XYY=             -0.0002
  XXY=             -0.0001  XXZ=             -0.0001  XZZ=             -0.0002  YZZ=             -0.0000
  YYZ=             -0.0001  XYZ=             -0.0001
 Hexadecapole moment (field-independent basis, Debye-Ang**3):
 XXXX=            -97.5995 YYYY=            -30.3112 ZZZZ=            -30.3105 XXXY=             -0.0006
 XXXZ=             -0.0010 YYYX=              0.7856 YYYZ=             -0.0000 ZZZX=             -1.3696
 ZZZY=             -0.0002 XXYY=            -19.9457 XXZZ=            -19.9450 YYZZ=            -10.1036
 XXYZ=             -0.0000 YYXZ=              1.3691 ZZXY=             -0.7860
 N-N= 4.203915846206D+01 E-N=-2.681562845896D+02  KE= 7.920371292604D+01
 No NMR shielding tensors so no spin-rotation constants.
 Leave Link  601 at Tue Oct 25 22:28:14 2022, MaxMem=  1342177280 cpu:               1.0 elap:               0.1
 (Enter /home/lmod/software/Binaries/g16/B.01/l612.exe)
 Running external command "gaunbo6 R"
         input file       "/home/oyanez/Gaussian/coms/Gau-203890.EIn"
         output file      "/home/oyanez/Gaussian/coms/Gau-203890.EOu"
         message file     "/home/oyanez/Gaussian/coms/Gau-203890.EMs"
         fchk file        "/home/oyanez/Gaussian/coms/Gau-203890.EFC"
         mat. el file     "/home/oyanez/Gaussian/coms/Gau-203890.EUF"
 Warning:  Reading an uninitialized block!
 Want step      1 but only have      0 steps.

 Writing WrtUnf unformatted file "/home/oyanez/Gaussian/coms/Gau-203890.EUF"
 Gaussian matrix elements                                         Version   2 NLab=11 Len12L=8 Len4L=8
 Write SHELL TO ATOM MAP                   from file     0 offset           0 length                  46 to matrix element file.
 Write SHELL TYPES                         from file     0 offset           0 length                  46 to matrix element file.
 Write NUMBER OF PRIMITIVES PER SHELL      from file     0 offset           0 length                  46 to matrix element file.
 Write PRIMITIVE EXPONENTS                 from file     0 offset           0 length                  76 to matrix element file.
 Write CONTRACTION COEFFICIENTS            from file     0 offset           0 length                  76 to matrix element file.
 Write P(S=P) CONTRACTION COEFFICIENTS     from file     0 offset           0 length                  76 to matrix element file.
 Write COORDINATES OF EACH SHELL           from file     0 offset           0 length                 138 to matrix element file.
 Write BONDS PER ATOM                      from file     0 offset           0 length                   8 to matrix element file.
 Write BONDED ATOMS                        from file     0 offset           0 length                  14 to matrix element file.
 Write BOND TYPES                          from file     0 offset           0 length                  14 to matrix element file.
 Write GAUSSIAN SCALARS                    from file   501 offset           0 to matrix element file.
 Write INTEGER ISO                         from file     0 offset           0 length                   8 to matrix element file.
 Write INTEGER SPIN                        from file     0 offset           0 length                   8 to matrix element file.
 Write REAL ZEFFECTIVE                     from file     0 offset           0 length                   8 to matrix element file.
 Write REAL GFACTOR                        from file     0 offset           0 length                   8 to matrix element file.
 Write REAL ZNUCLEAR                       from file     0 offset           0 length                   8 to matrix element file.
 Write MULLIKEN CHARGES                    from file     0 offset           0 length                   8 to matrix element file.
 Write NUCLEAR GRADIENT                    from file 10584 offset           0 length                  24 to matrix element file.
 Array NUCLEAR FORCE CONSTANTS              on  file 10585 does not exist.
 Write ELECTRIC DIPOLE MOMENT              from file     0 offset           0 length                   3 to matrix element file.
 Write NON-ADIABATIC COUPLING              from file 10810 offset           0 length                  24 to matrix element file.
 Write OVERLAP                             from file 10514 offset           0 length                4851 to matrix element file.
 Write CORE HAMILTONIAN ALPHA              from file 10515 offset           0 length                4851 to matrix element file.
 Write CORE HAMILTONIAN BETA               from file 10515 offset        4851 length                4851 to matrix element file.
 Write KINETIC ENERGY                      from file 10516 offset           0 length                4851 to matrix element file.
 Write ORTHOGONAL BASIS                    from file 10685 offset           0 length                9604 to matrix element file.
 Write DIPOLE INTEGRALS                    from file 10518 offset           0 length               14553 to matrix element file.
 Array DIP VEL INTEGRALS                    on  file 10572 does not exist.
 Array R X DEL INTEGRALS                    on  file 10572 does not exist.
 Write ALPHA ORBITAL ENERGIES              from file     0 offset           0 length                  98 to matrix element file.
 Write ALPHA MO COEFFICIENTS               from file 10524 offset           0 length                9604 to matrix element file.
 Write ALPHA DENSITY MATRIX                from file     0 offset           0 length                4851 to matrix element file.
 Write ALPHA SCF DENSITY MATRIX            from file 10528 offset           0 length                4851 to matrix element file.
 Write ALPHA FOCK MATRIX                   from file 10536 offset           0 length                4851 to matrix element file.
 Write ALPHA SCF DENSITY                   from file     0 offset           0 length                4851 to matrix element file.
 No 2e integrals to process.
 Perform NBO analysis...executing G16NBO...

 *********************************** NBO 7.0 ***********************************
             N A T U R A L   A T O M I C   O R B I T A L   A N D
          N A T U R A L   B O N D   O R B I T A L   A N A L Y S I S
 *********************** Kerry Wrighton-Araneda (I102012) **********************
  (c) Copyright 1996-2020 Board of Regents of the University of Wisconsin System
      on behalf of the Theoretical Chemistry Institute.  All rights reserved.

          Cite this program [NBO 7.0.9 (21-May-2020)] as:

          NBO 7.0.  E. D. Glendening, J. K. Badenhoop, A. E. Reed,
          J. E. Carpenter, J. A. Bohmann, C. M. Morales, P. Karafiloglou,
          C. R. Landis, and F. Weinhold, Theoretical Chemistry Institute,
          University of Wisconsin, Madison, WI (2018)

       /BNDIDX / : Print bond indices based on the NAO density matrix

 Filename set to /home/oyanez/Gaussian/coms/Gau-203890

 Job title: 1_SiLi-0000 E=0.000000


 NATURAL POPULATIONS:  Natural atomic orbital occupancies

  NAO Atom No lang   Type(AO)    Occupancy      Energy
 -------------------------------------------------------
   1    C  1  s      Cor( 1s)     1.99999     -10.20968
   2    C  1  s      Val( 2s)     1.12830      -0.23003
   3    C  1  s      Ryd( 3s)     0.00109       1.26024
   4    C  1  s      Ryd( 5s)     0.00001      12.61881
   5    C  1  s      Ryd( 4s)     0.00000      10.58181
   6    C  1  px     Val( 2p)     1.06296      -0.07492
   7    C  1  px     Ryd( 3p)     0.00025       0.64914
   8    C  1  px     Ryd( 4p)     0.00004       1.71420
   9    C  1  py     Val( 2p)     1.20681      -0.09687
  10    C  1  py     Ryd( 3p)     0.00048       0.68472
  11    C  1  py     Ryd( 4p)     0.00001       1.45796
  12    C  1  pz     Val( 2p)     1.20681      -0.09688
  13    C  1  pz     Ryd( 3p)     0.00049       0.68474
  14    C  1  pz     Ryd( 4p)     0.00001       1.45793
  15    C  1  dxy    Ryd( 3d)     0.00049       1.73751
  16    C  1  dxy    Ryd( 4d)     0.00004       2.69602
  17    C  1  dxz    Ryd( 3d)     0.00049       1.73754
  18    C  1  dxz    Ryd( 4d)     0.00004       2.69605
  19    C  1  dyz    Ryd( 3d)     0.00116       1.84704
  20    C  1  dyz    Ryd( 4d)     0.00000       2.78677
  21    C  1  dx2y2  Ryd( 3d)     0.00139       2.14557
  22    C  1  dx2y2  Ryd( 4d)     0.00000       2.93593
  23    C  1  dz2    Ryd( 3d)     0.00124       1.94646
  24    C  1  dz2    Ryd( 4d)     0.00000       2.83643
  25    C  1  f(0)   Ryd( 4f)     0.00021       3.42851
  26    C  1  f(c1)  Ryd( 4f)     0.00018       3.42501
  27    C  1  f(s1)  Ryd( 4f)     0.00010       3.22795
  28    C  1  f(c2)  Ryd( 4f)     0.00013       3.41089
  29    C  1  f(s2)  Ryd( 4f)     0.00002       3.38273
  30    C  1  f(c3)  Ryd( 4f)     0.00029       3.45314
  31    C  1  f(s3)  Ryd( 4f)     0.00002       3.37383

  32    C  2  s      Cor( 1s)     1.99999     -10.20969
  33    C  2  s      Val( 2s)     1.12833      -0.23005
  34    C  2  s      Ryd( 3s)     0.00109       1.26043
  35    C  2  s      Ryd( 5s)     0.00001      12.62956
  36    C  2  s      Ryd( 4s)     0.00000      10.57187
  37    C  2  px     Val( 2p)     1.06295      -0.07492
  38    C  2  px     Ryd( 3p)     0.00025       0.64909
  39    C  2  px     Ryd( 4p)     0.00004       1.71462
  40    C  2  py     Val( 2p)     1.20680      -0.09689
  41    C  2  py     Ryd( 3p)     0.00049       0.68468
  42    C  2  py     Ryd( 4p)     0.00001       1.45798
  43    C  2  pz     Val( 2p)     1.20681      -0.09687
  44    C  2  pz     Ryd( 3p)     0.00048       0.68471
  45    C  2  pz     Ryd( 4p)     0.00001       1.45802
  46    C  2  dxy    Ryd( 3d)     0.00049       1.73748
  47    C  2  dxy    Ryd( 4d)     0.00004       2.69607
  48    C  2  dxz    Ryd( 3d)     0.00049       1.73758
  49    C  2  dxz    Ryd( 4d)     0.00004       2.69612
  50    C  2  dyz    Ryd( 3d)     0.00116       1.84684
  51    C  2  dyz    Ryd( 4d)     0.00000       2.78674
  52    C  2  dx2y2  Ryd( 3d)     0.00139       2.14552
  53    C  2  dx2y2  Ryd( 4d)     0.00000       2.93598
  54    C  2  dz2    Ryd( 3d)     0.00124       1.94645
  55    C  2  dz2    Ryd( 4d)     0.00000       2.83652
  56    C  2  f(0)   Ryd( 4f)     0.00021       3.42853
  57    C  2  f(c1)  Ryd( 4f)     0.00018       3.42508
  58    C  2  f(s1)  Ryd( 4f)     0.00010       3.22782
  59    C  2  f(c2)  Ryd( 4f)     0.00013       3.41079
  60    C  2  f(s2)  Ryd( 4f)     0.00002       3.38274
  61    C  2  f(c3)  Ryd( 4f)     0.00029       3.45314
  62    C  2  f(s3)  Ryd( 4f)     0.00002       3.37380

  63    H  3  s      Val( 1s)     0.79435       0.03934
  64    H  3  s      Ryd( 2s)     0.00061       0.67307
  65    H  3  s      Ryd( 3s)     0.00001       1.98030
  66    H  3  px     Ryd( 2p)     0.00014       2.29998
  67    H  3  py     Ryd( 2p)     0.00043       2.60657
  68    H  3  pz     Ryd( 2p)     0.00010       2.18490

  69    H  4  s      Val( 1s)     0.79435       0.03933
  70    H  4  s      Ryd( 2s)     0.00061       0.67305
  71    H  4  s      Ryd( 3s)     0.00001       1.98033
  72    H  4  px     Ryd( 2p)     0.00014       2.29998
  73    H  4  py     Ryd( 2p)     0.00030       2.44405
  74    H  4  pz     Ryd( 2p)     0.00023       2.34743

  75    H  5  s      Val( 1s)     0.79434       0.03931
  76    H  5  s      Ryd( 2s)     0.00061       0.67299
  77    H  5  s      Ryd( 3s)     0.00001       1.98039
  78    H  5  px     Ryd( 2p)     0.00014       2.30002
  79    H  5  py     Ryd( 2p)     0.00007       2.13657
  80    H  5  pz     Ryd( 2p)     0.00046       2.65489

  81    H  6  s      Val( 1s)     0.79435       0.03927
  82    H  6  s      Ryd( 2s)     0.00061       0.67292
  83    H  6  s      Ryd( 3s)     0.00001       1.98053
  84    H  6  px     Ryd( 2p)     0.00014       2.29998
  85    H  6  py     Ryd( 2p)     0.00043       2.60657
  86    H  6  pz     Ryd( 2p)     0.00010       2.18487

  87    H  7  s      Val( 1s)     0.79435       0.03934
  88    H  7  s      Ryd( 2s)     0.00061       0.67298
  89    H  7  s      Ryd( 3s)     0.00001       1.98040
  90    H  7  px     Ryd( 2p)     0.00014       2.30000
  91    H  7  py     Ryd( 2p)     0.00007       2.13653
  92    H  7  pz     Ryd( 2p)     0.00046       2.65478

  93    H  8  s      Val( 1s)     0.79435       0.03932
  94    H  8  s      Ryd( 2s)     0.00061       0.67297
  95    H  8  s      Ryd( 3s)     0.00001       1.98044
  96    H  8  px     Ryd( 2p)     0.00014       2.29999
  97    H  8  py     Ryd( 2p)     0.00030       2.44398
  98    H  8  pz     Ryd( 2p)     0.00023       2.34738


 Summary of Natural Population Analysis:

                                     Natural Population
             Natural    ---------------------------------------------
  Atom No    Charge        Core      Valence    Rydberg      Total
 --------------------------------------------------------------------
    C  1   -0.61307      1.99999     4.60489    0.00819     6.61307
    C  2   -0.61307      1.99999     4.60489    0.00819     6.61307
    H  3    0.20436      0.00000     0.79435    0.00130     0.79564
    H  4    0.20436      0.00000     0.79435    0.00130     0.79564
    H  5    0.20436      0.00000     0.79434    0.00130     0.79564
    H  6    0.20435      0.00000     0.79435    0.00130     0.79565
    H  7    0.20436      0.00000     0.79435    0.00130     0.79564
    H  8    0.20436      0.00000     0.79435    0.00130     0.79564
 ====================================================================
 * Total * -0.00000      3.99998    13.97587    0.02415    18.00000

                                 Natural Population
 ---------------------------------------------------------
   Core                       3.99998 ( 99.9995% of    4)
   Valence                   13.97587 ( 99.8276% of   14)
   Natural Minimal Basis     17.97585 ( 99.8658% of   18)
   Natural Rydberg Basis      0.02415 (  0.1342% of   18)
 ---------------------------------------------------------

    Atom No         Natural Electron Configuration
 ----------------------------------------------------------------------------
      C  1      [core]2s( 1.13)2p( 3.48)
      C  2      [core]2s( 1.13)2p( 3.48)
      H  3            1s( 0.79)
      H  4            1s( 0.79)
      H  5            1s( 0.79)
      H  6            1s( 0.79)
      H  7            1s( 0.79)
      H  8            1s( 0.79)


 Wiberg bond index matrix in the NAO basis:

     Atom    1       2       3       4       5       6       7       8
     ---- ------  ------  ------  ------  ------  ------  ------  ------
   1.  C  0.0000  1.0458  0.9419  0.9419  0.9419  0.0019  0.0019  0.0019
   2.  C  1.0458  0.0000  0.0019  0.0019  0.0019  0.9419  0.9419  0.9419
   3.  H  0.9419  0.0019  0.0000  0.0001  0.0001  0.0129  0.0013  0.0013
   4.  H  0.9419  0.0019  0.0001  0.0000  0.0001  0.0013  0.0013  0.0129
   5.  H  0.9419  0.0019  0.0001  0.0001  0.0000  0.0013  0.0129  0.0013
   6.  H  0.0019  0.9419  0.0129  0.0013  0.0013  0.0000  0.0001  0.0001
   7.  H  0.0019  0.9419  0.0013  0.0013  0.0129  0.0001  0.0000  0.0001
   8.  H  0.0019  0.9419  0.0013  0.0129  0.0013  0.0001  0.0001  0.0000


 Wiberg bond index, Totals by atom:

     Atom    1
     ---- ------
   1.  C  3.8772
   2.  C  3.8772
   3.  H  0.9595
   4.  H  0.9595
   5.  H  0.9595
   6.  H  0.9595
   7.  H  0.9595
   8.  H  0.9595


 NBI: Natural Binding Index (NCU strength parameters)

     Atom    1       2       3       4       5       6       7       8
     ---- ------  ------  ------  ------  ------  ------  ------  ------
   1.  C  0.0000  1.0226  0.9705  0.9705  0.9705  0.0434  0.0434  0.0434
   2.  C  1.0226  0.0000  0.0434  0.0434  0.0434  0.9705  0.9705  0.9705
   3.  H  0.9705  0.0434  0.0000  0.0095  0.0095  0.1136  0.0359  0.0359
   4.  H  0.9705  0.0434  0.0095  0.0000  0.0095  0.0359  0.0359  0.1136
   5.  H  0.9705  0.0434  0.0095  0.0095  0.0000  0.0359  0.1136  0.0359
   6.  H  0.0434  0.9705  0.1136  0.0359  0.0359  0.0000  0.0095  0.0095
   7.  H  0.0434  0.9705  0.0359  0.0359  0.1136  0.0095  0.0000  0.0095
   8.  H  0.0434  0.9705  0.0359  0.1136  0.0359  0.0095  0.0095  0.0000


 NATURAL BOND ORBITAL ANALYSIS:

                            Occupancies       Lewis Structure    Low   High
         Max    Occ     -------------------  -----------------   occ   occ
  Cycle  Ctr   Thresh    Lewis   non-Lewis     CR  BD  nC  LP    (L)   (NL)
 ============================================================================
    1     2     1.90    17.94556   0.05444      2   7   0   0     0      0
 ----------------------------------------------------------------------------

 Structure accepted: No low occupancy Lewis orbitals

 -------------------------------------------------------
   Core                      3.99998 (100.000% of   4)
   Valence Lewis            13.94558 ( 99.611% of  14)
  ==================      =============================
   Total Lewis              17.94556 ( 99.698% of  18)
  -----------------------------------------------------
   Valence non-Lewis         0.04707 (  0.261% of  18)
   Rydberg non-Lewis         0.00737 (  0.041% of  18)
  ==================      =============================
   Total non-Lewis           0.05444 (  0.302% of  18)
 -------------------------------------------------------


     (Occupancy)   Bond orbital / Coefficients / Hybrids
 ------------------ Lewis ------------------------------------------------------
   1. (1.99999) CR ( 1) C  1            s(100.00%)
                                         1.0000  0.0000  0.0000  0.0000  0.0000
                                         0.0000  0.0000  0.0000  0.0000  0.0000
                                         0.0000  0.0000  0.0000  0.0000  0.0000
                                         0.0000  0.0000  0.0000  0.0000  0.0000
                                         0.0000  0.0000  0.0000  0.0000  0.0000
                                         0.0000  0.0000  0.0000  0.0000  0.0000
                                         0.0000
   2. (1.99999) CR ( 1) C  2            s(100.00%)
                                         1.0000  0.0000  0.0000  0.0000  0.0000
                                         0.0000  0.0000  0.0000  0.0000  0.0000
                                         0.0000  0.0000  0.0000  0.0000  0.0000
                                         0.0000  0.0000  0.0000  0.0000  0.0000
                                         0.0000  0.0000  0.0000  0.0000  0.0000
                                         0.0000  0.0000  0.0000  0.0000  0.0000
                                         0.0000
   3. (1.99852) BD ( 1) C  1- C  2
               ( 50.00%)   0.7071* C  1 s( 28.20%)p 2.54( 71.69%)d 0.00(  0.09%)
                                                  f 0.00(  0.02%)
                                         0.0000  0.5302  0.0283 -0.0004 -0.0000
                                         0.8466 -0.0108 -0.0009  0.0000  0.0000
                                        -0.0000  0.0000  0.0000 -0.0000 -0.0000
                                         0.0000 -0.0000  0.0000 -0.0000  0.0000
                                         0.0255 -0.0004 -0.0147  0.0002  0.0047
                                        -0.0084  0.0033  0.0037 -0.0000  0.0109
                                         0.0009
               ( 50.00%)   0.7071* C  2 s( 28.20%)p 2.54( 71.69%)d 0.00(  0.09%)
                                                  f 0.00(  0.02%)
                                         0.0000  0.5303  0.0283 -0.0004 -0.0000
                                        -0.8466  0.0109  0.0009  0.0000  0.0000
                                         0.0000  0.0000  0.0000  0.0000 -0.0000
                                         0.0000  0.0000 -0.0000 -0.0000  0.0000
                                         0.0255 -0.0004 -0.0147  0.0002 -0.0047
                                         0.0084 -0.0033 -0.0037  0.0000 -0.0109
                                        -0.0009
   4. (1.99117) BD ( 1) C  1- H  3
               ( 60.32%)   0.7766* C  1 s( 23.94%)p 3.17( 75.93%)d 0.00(  0.10%)
                                                  f 0.00(  0.02%)
                                         0.0000  0.4892 -0.0085  0.0001  0.0000
                                        -0.3058  0.0046  0.0025 -0.7665 -0.0054
                                        -0.0010 -0.2797 -0.0020 -0.0004  0.0145
                                         0.0003  0.0053  0.0001  0.0163 -0.0004
                                        -0.0207  0.0010 -0.0104  0.0000  0.0071
                                        -0.0034  0.0049  0.0058 -0.0020  0.0083
                                         0.0020
               ( 39.68%)   0.6299* H  3 s( 99.94%)p 0.00(  0.06%)
                                         0.9997 -0.0016  0.0000  0.0091  0.0223
                                         0.0081
   5. (1.99118) BD ( 1) C  1- H  4
               ( 60.32%)   0.7766* C  1 s( 23.94%)p 3.17( 75.93%)d 0.00(  0.10%)
                                                  f 0.00(  0.02%)
                                         0.0000  0.4892 -0.0085  0.0001  0.0000
                                        -0.3058  0.0046  0.0025  0.6255  0.0044
                                         0.0008 -0.5240 -0.0037 -0.0007 -0.0118
                                        -0.0002  0.0099  0.0002 -0.0249  0.0006
                                        -0.0132  0.0008  0.0025 -0.0003  0.0069
                                        -0.0049  0.0052  0.0060  0.0031  0.0072
                                         0.0007
               ( 39.68%)   0.6299* H  4 s( 99.94%)p 0.00(  0.06%)
                                         0.9997 -0.0016  0.0000  0.0091 -0.0182
                                         0.0152
   6. (1.99118) BD ( 1) C  1- H  5
               ( 60.32%)   0.7766* C  1 s( 23.94%)p 3.17( 75.93%)d 0.00(  0.10%)
                                                  f 0.00(  0.02%)
                                         0.0000  0.4892 -0.0085  0.0001  0.0000
                                        -0.3059  0.0046  0.0025  0.1410  0.0010
                                         0.0002  0.8036  0.0057  0.0011 -0.0027
                                        -0.0001 -0.0152 -0.0003  0.0086 -0.0002
                                         0.0009  0.0004  0.0269 -0.0009  0.0077
                                        -0.0076  0.0051  0.0050 -0.0011  0.0050
                                         0.0012
               ( 39.68%)   0.6299* H  5 s( 99.94%)p 0.00(  0.06%)
                                         0.9997 -0.0016  0.0000  0.0091 -0.0041
                                        -0.0234
   7. (1.99118) BD ( 1) C  2- H  6
               ( 60.32%)   0.7766* C  2 s( 23.94%)p 3.17( 75.94%)d 0.00(  0.10%)
                                                  f 0.00(  0.02%)
                                         0.0000  0.4892 -0.0085  0.0001  0.0000
                                         0.3058 -0.0046 -0.0025  0.7665  0.0054
                                         0.0010  0.2797  0.0020  0.0004  0.0145
                                         0.0003  0.0053  0.0001  0.0163 -0.0004
                                        -0.0207  0.0010 -0.0104  0.0000 -0.0071
                                         0.0034 -0.0049 -0.0058  0.0020 -0.0083
                                        -0.0020
               ( 39.68%)   0.6299* H  6 s( 99.94%)p 0.00(  0.06%)
                                         0.9997 -0.0016  0.0000 -0.0091 -0.0223
                                        -0.0081
   8. (1.99118) BD ( 1) C  2- H  7
               ( 60.32%)   0.7766* C  2 s( 23.94%)p 3.17( 75.93%)d 0.00(  0.10%)
                                                  f 0.00(  0.02%)
                                         0.0000  0.4892 -0.0085  0.0001  0.0000
                                         0.3059 -0.0046 -0.0025 -0.1410 -0.0010
                                        -0.0002 -0.8036 -0.0057 -0.0011 -0.0027
                                        -0.0001 -0.0152 -0.0003  0.0086 -0.0002
                                         0.0009  0.0004  0.0269 -0.0009 -0.0077
                                         0.0076 -0.0051 -0.0050  0.0011 -0.0050
                                        -0.0012
               ( 39.68%)   0.6299* H  7 s( 99.94%)p 0.00(  0.06%)
                                         0.9997 -0.0016  0.0000 -0.0091  0.0041
                                         0.0234
   9. (1.99118) BD ( 1) C  2- H  8
               ( 60.32%)   0.7766* C  2 s( 23.94%)p 3.17( 75.93%)d 0.00(  0.10%)
                                                  f 0.00(  0.02%)
                                         0.0000  0.4892 -0.0085  0.0001  0.0000
                                         0.3059 -0.0046 -0.0025 -0.6255 -0.0044
                                        -0.0008  0.5239  0.0037  0.0007 -0.0118
                                        -0.0002  0.0099  0.0002 -0.0249  0.0006
                                        -0.0132  0.0008  0.0025 -0.0003 -0.0069
                                         0.0049 -0.0052 -0.0060 -0.0031 -0.0072
                                        -0.0007
               ( 39.68%)   0.6299* H  8 s( 99.94%)p 0.00(  0.06%)
                                         0.9997 -0.0016  0.0000 -0.0091  0.0182
                                        -0.0152
 ---------------- non-Lewis ----------------------------------------------------
  10. (0.00015) BD*( 1) C  1- C  2
               ( 50.00%)   0.7071* C  1 s( 28.20%)p 2.54( 71.69%)d 0.00(  0.09%)
                                                  f 0.00(  0.02%)
                                         0.0000 -0.5302 -0.0283  0.0004  0.0000
                                        -0.8466  0.0108  0.0009 -0.0000 -0.0000
                                         0.0000 -0.0000 -0.0000  0.0000  0.0000
                                        -0.0000  0.0000 -0.0000  0.0000 -0.0000
                                        -0.0255  0.0004  0.0147 -0.0002 -0.0047
                                         0.0084 -0.0033 -0.0037  0.0000 -0.0109
                                        -0.0009
               ( 50.00%)  -0.7071* C  2 s( 28.20%)p 2.54( 71.69%)d 0.00(  0.09%)
                                                  f 0.00(  0.02%)
                                         0.0000 -0.5303 -0.0283  0.0004  0.0000
                                         0.8466 -0.0109 -0.0009 -0.0000 -0.0000
                                        -0.0000 -0.0000 -0.0000 -0.0000  0.0000
                                        -0.0000 -0.0000  0.0000  0.0000 -0.0000
                                        -0.0255  0.0004  0.0147 -0.0002  0.0047
                                        -0.0084  0.0033  0.0037 -0.0000  0.0109
                                         0.0009
  11. (0.00782) BD*( 1) C  1- H  3
               ( 39.68%)   0.6299* C  1 s( 23.94%)p 3.17( 75.93%)d 0.00(  0.10%)
                                                  f 0.00(  0.02%)
                                         0.0000 -0.4892  0.0085 -0.0001 -0.0000
                                         0.3058 -0.0046 -0.0025  0.7665  0.0054
                                         0.0010  0.2797  0.0020  0.0004 -0.0145
                                        -0.0003 -0.0053 -0.0001 -0.0163  0.0004
                                         0.0207 -0.0010  0.0104 -0.0000 -0.0071
                                         0.0034 -0.0049 -0.0058  0.0020 -0.0083
                                        -0.0020
               ( 60.32%)  -0.7766* H  3 s( 99.94%)p 0.00(  0.06%)
                                        -0.9997  0.0016 -0.0000 -0.0091 -0.0223
                                        -0.0081
  12. (0.00782) BD*( 1) C  1- H  4
               ( 39.68%)   0.6299* C  1 s( 23.94%)p 3.17( 75.93%)d 0.00(  0.10%)
                                                  f 0.00(  0.02%)
                                         0.0000 -0.4892  0.0085 -0.0001 -0.0000
                                         0.3058 -0.0046 -0.0025 -0.6255 -0.0044
                                        -0.0008  0.5240  0.0037  0.0007  0.0118
                                         0.0002 -0.0099 -0.0002  0.0249 -0.0006
                                         0.0132 -0.0008 -0.0025  0.0003 -0.0069
                                         0.0049 -0.0052 -0.0060 -0.0031 -0.0072
                                        -0.0007
               ( 60.32%)  -0.7766* H  4 s( 99.94%)p 0.00(  0.06%)
                                        -0.9997  0.0016 -0.0000 -0.0091  0.0182
                                        -0.0152
  13. (0.00782) BD*( 1) C  1- H  5
               ( 39.68%)   0.6299* C  1 s( 23.94%)p 3.17( 75.93%)d 0.00(  0.10%)
                                                  f 0.00(  0.02%)
                                         0.0000 -0.4892  0.0085 -0.0001 -0.0000
                                         0.3059 -0.0046 -0.0025 -0.1410 -0.0010
                                        -0.0002 -0.8036 -0.0057 -0.0011  0.0027
                                         0.0001  0.0152  0.0003 -0.0086  0.0002
                                        -0.0009 -0.0004 -0.0269  0.0009 -0.0077
                                         0.0076 -0.0051 -0.0050  0.0011 -0.0050
                                        -0.0012
               ( 60.32%)  -0.7766* H  5 s( 99.94%)p 0.00(  0.06%)
                                        -0.9997  0.0016 -0.0000 -0.0091  0.0041
                                         0.0234
  14. (0.00782) BD*( 1) C  2- H  6
               ( 39.68%)   0.6299* C  2 s( 23.94%)p 3.17( 75.94%)d 0.00(  0.10%)
                                                  f 0.00(  0.02%)
                                         0.0000 -0.4892  0.0085 -0.0001 -0.0000
                                        -0.3058  0.0046  0.0025 -0.7665 -0.0054
                                        -0.0010 -0.2797 -0.0020 -0.0004 -0.0145
                                        -0.0003 -0.0053 -0.0001 -0.0163  0.0004
                                         0.0207 -0.0010  0.0104 -0.0000  0.0071
                                        -0.0034  0.0049  0.0058 -0.0020  0.0083
                                         0.0020
               ( 60.32%)  -0.7766* H  6 s( 99.94%)p 0.00(  0.06%)
                                        -0.9997  0.0016 -0.0000  0.0091  0.0223
                                         0.0081
  15. (0.00782) BD*( 1) C  2- H  7
               ( 39.68%)   0.6299* C  2 s( 23.94%)p 3.17( 75.93%)d 0.00(  0.10%)
                                                  f 0.00(  0.02%)
                                         0.0000 -0.4892  0.0085 -0.0001 -0.0000
                                        -0.3059  0.0046  0.0025  0.1410  0.0010
                                         0.0002  0.8036  0.0057  0.0011  0.0027
                                         0.0001  0.0152  0.0003 -0.0086  0.0002
                                        -0.0009 -0.0004 -0.0269  0.0009  0.0077
                                        -0.0076  0.0051  0.0050 -0.0011  0.0050
                                         0.0012
               ( 60.32%)  -0.7766* H  7 s( 99.94%)p 0.00(  0.06%)
                                        -0.9997  0.0016 -0.0000  0.0091 -0.0041
                                        -0.0234
  16. (0.00782) BD*( 1) C  2- H  8
               ( 39.68%)   0.6299* C  2 s( 23.94%)p 3.17( 75.93%)d 0.00(  0.10%)
                                                  f 0.00(  0.02%)
                                         0.0000 -0.4892  0.0085 -0.0001 -0.0000
                                        -0.3059  0.0046  0.0025  0.6255  0.0044
                                         0.0008 -0.5239 -0.0037 -0.0007  0.0118
                                         0.0002 -0.0099 -0.0002  0.0249 -0.0006
                                         0.0132 -0.0008 -0.0025  0.0003  0.0069
                                        -0.0049  0.0052  0.0060  0.0031  0.0072
                                         0.0007
               ( 60.32%)  -0.7766* H  8 s( 99.94%)p 0.00(  0.06%)
                                        -0.9997  0.0016 -0.0000  0.0091 -0.0182
                                         0.0152
  17. (0.00060) RY ( 1) C  1            s(  0.00%)p 1.00( 74.62%)d 0.31( 23.15%)
                                                  f 0.03(  2.23%)
                                         0.0000 -0.0000 -0.0000 -0.0000  0.0000
                                         0.0000  0.0001 -0.0001 -0.0174  0.7932
                                        -0.0935 -0.0072  0.3262 -0.0384 -0.3320
                                        -0.2248 -0.1365 -0.0924 -0.1264 -0.0200
                                         0.0815  0.0129  0.1410  0.0224 -0.0327
                                         0.0317 -0.0325  0.0422 -0.0311  0.0246
                                         0.1258
  18. (0.00060) RY ( 2) C  1            s(  0.00%)p 1.00( 74.63%)d 0.31( 23.14%)
                                                  f 0.03(  2.23%)
                                         0.0000 -0.0000  0.0000 -0.0000  0.0000
                                         0.0000  0.0000 -0.0000  0.0072 -0.3262
                                         0.0384 -0.0174  0.7933 -0.0933  0.1365
                                         0.0924 -0.3319 -0.2248  0.1629  0.0258
                                         0.0632  0.0100  0.1094  0.0173 -0.0796
                                         0.0246  0.0134  0.1027  0.0401  0.0191
                                        -0.0517
  19. (0.00012) RY ( 3) C  1            s( 32.34%)p 1.90( 61.47%)d 0.06(  2.05%)
                                                  f 0.13(  4.15%)
                                         0.0000 -0.0040  0.4888  0.2904  0.0123
                                        -0.0313 -0.6808 -0.3875 -0.0000  0.0000
                                        -0.0001 -0.0000 -0.0000 -0.0001 -0.0001
                                         0.0000 -0.0001  0.0001 -0.0000  0.0000
                                         0.1206  0.0283 -0.0697 -0.0163  0.0428
                                        -0.1187  0.0301  0.0331  0.0000  0.1533
                                         0.0077
  20. (0.00000) RY ( 4) C  1            s( 70.41%)p 0.03(  2.20%)d 0.16( 11.05%)
                                                  f 0.23( 16.34%)
  21. (0.00000) RY ( 5) C  1            s(  4.76%)p 0.51(  2.41%)d 6.43( 30.61%)
                                                  f13.07( 62.22%)
  22. (0.00000) RY ( 6) C  1            s( 57.06%)p 0.10(  5.95%)d 0.06(  3.60%)
                                                  f 0.59( 33.39%)
  23. (0.00000) RY ( 7) C  1            s( 62.22%)p 0.15(  9.49%)d 0.12(  7.62%)
                                                  f 0.33( 20.67%)
  24. (0.00000) RY ( 8) C  1            s(  4.84%)p12.06( 58.32%)d 2.76( 13.36%)
                                                  f 4.85( 23.48%)
  25. (0.00000) RY ( 9) C  1            s( 28.17%)p 1.01( 28.32%)d 0.96( 26.98%)
                                                  f 0.59( 16.53%)
  26. (0.00000) RY (10) C  1            s(  0.84%)p22.44( 18.79%)d70.76( 59.24%)
                                                  f25.25( 21.14%)
  27. (0.00000) RY (11) C  1            s(  8.72%)p 8.20( 71.52%)d 1.58( 13.74%)
                                                  f 0.69(  6.02%)
  28. (0.00000) RY (12) C  1            s( 25.57%)p 1.31( 33.54%)d 1.42( 36.27%)
                                                  f 0.18(  4.63%)
  29. (0.00000) RY (13) C  1            s(  0.58%)p 3.27(  1.90%)d27.95( 16.27%)
                                                  f99.99( 81.25%)
  30. (0.00000) RY (14) C  1            s(  0.73%)p60.92( 44.58%)d64.79( 47.41%)
                                                  f 9.95(  7.28%)
  31. (0.00000) RY (15) C  1            s(  0.33%)p70.94( 23.46%)d99.99( 65.36%)
                                                  f32.80( 10.85%)
  32. (0.00000) RY (16) C  1            s(  0.44%)p28.57( 12.52%)d99.99( 79.29%)
                                                  f17.68(  7.75%)
  33. (0.00000) RY (17) C  1            s(  0.43%)p 8.51(  3.63%)d99.99( 77.67%)
                                                  f42.82( 18.27%)
  34. (0.00000) RY (18) C  1            s(  0.56%)p15.08(  8.46%)d99.99( 83.18%)
                                                  f13.88(  7.80%)
  35. (0.00000) RY (19) C  1            s(  0.10%)p20.83(  2.11%)d99.99( 60.41%)
                                                  f99.99( 37.38%)
  36. (0.00000) RY (20) C  1            s(  0.41%)p 3.02(  1.24%)d99.99( 49.09%)
                                                  f99.99( 49.26%)
  37. (0.00000) RY (21) C  1            s(  0.58%)p58.57( 33.76%)d99.99( 62.48%)
                                                  f 5.52(  3.18%)
  38. (0.00000) RY (22) C  1            s(  0.18%)p20.65(  3.67%)d99.99( 31.74%)
                                                  f99.99( 64.41%)
  39. (0.00000) RY (23) C  1            s(  0.09%)p99.99( 10.13%)d99.99( 56.70%)
                                                  f99.99( 33.08%)
  40. (0.00000) RY (24) C  1            s(  0.33%)p22.37(  7.40%)d99.99( 72.69%)
                                                  f59.19( 19.58%)
  41. (0.00000) RY (25) C  1            s(  0.15%)p16.58(  2.45%)d99.99( 24.02%)
                                                  f99.99( 73.38%)
  42. (0.00000) RY (26) C  1            s(  0.16%)p24.73(  3.94%)d99.99( 22.50%)
                                                  f99.99( 73.40%)
  43. (0.00060) RY ( 1) C  2            s(  0.00%)p 1.00( 74.62%)d 0.31( 23.15%)
                                                  f 0.03(  2.23%)
                                         0.0000 -0.0000  0.0001  0.0000 -0.0000
                                         0.0000  0.0000  0.0000  0.0098 -0.4441
                                         0.0523 -0.0161  0.7338 -0.0864 -0.1859
                                        -0.1259  0.3071  0.2080 -0.1804 -0.0286
                                        -0.0499 -0.0079 -0.0864 -0.0137 -0.0736
                                         0.0194  0.0182  0.0950  0.0444  0.0151
                                        -0.0704
  44. (0.00060) RY ( 2) C  2            s(  0.00%)p 1.00( 74.62%)d 0.31( 23.15%)
                                                  f 0.03(  2.23%)
                                         0.0000 -0.0000  0.0001  0.0000 -0.0000
                                         0.0000  0.0001  0.0000 -0.0161  0.7338
                                        -0.0864 -0.0097  0.4441 -0.0523  0.3071
                                         0.2079  0.1858  0.1259  0.0998  0.0158
                                        -0.0902 -0.0143 -0.1562 -0.0248 -0.0446
                                         0.0351 -0.0300  0.0575 -0.0246  0.0272
                                         0.1164
  45. (0.00012) RY ( 3) C  2            s( 32.30%)p 1.90( 61.50%)d 0.06(  2.05%)
                                                  f 0.13(  4.15%)
                                         0.0000 -0.0040  0.4886  0.2901  0.0123
                                         0.0313  0.6810  0.3877  0.0000 -0.0001
                                         0.0000 -0.0000 -0.0001  0.0001 -0.0000
                                        -0.0000 -0.0000 -0.0001 -0.0000 -0.0000
                                         0.1207  0.0282 -0.0697 -0.0163 -0.0428
                                         0.1187 -0.0301 -0.0332  0.0000 -0.1533
                                        -0.0078
  46. (0.00000) RY ( 4) C  2            s( 70.43%)p 0.03(  2.20%)d 0.16( 11.04%)
                                                  f 0.23( 16.34%)
  47. (0.00000) RY ( 5) C  2            s(  4.76%)p 0.51(  2.41%)d 6.44( 30.62%)
                                                  f13.08( 62.21%)
  48. (0.00000) RY ( 6) C  2            s( 75.62%)p 0.02(  1.38%)d 0.06(  4.30%)
                                                  f 0.25( 18.70%)
  49. (0.00000) RY ( 7) C  2            s( 21.59%)p 1.70( 36.81%)d 0.95( 20.51%)
                                                  f 0.98( 21.09%)
  50. (0.00000) RY ( 8) C  2            s( 19.38%)p 1.39( 26.92%)d 1.99( 38.49%)
                                                  f 0.78( 15.21%)
  51. (0.00000) RY ( 9) C  2            s( 10.67%)p 5.18( 55.22%)d 2.57( 27.37%)
                                                  f 0.63(  6.74%)
  52. (0.00000) RY (10) C  2            s(  7.44%)p 1.17(  8.71%)d 5.28( 39.27%)
                                                  f 6.00( 44.58%)
  53. (0.00000) RY (11) C  2            s(  5.56%)p 4.47( 24.85%)d10.52( 58.46%)
                                                  f 2.00( 11.13%)
  54. (0.00000) RY (12) C  2            s(  6.36%)p 3.46( 22.00%)d10.39( 66.06%)
                                                  f 0.88(  5.58%)
  55. (0.00000) RY (13) C  2            s(  2.57%)p19.45( 49.99%)d15.44( 39.69%)
                                                  f 3.01(  7.75%)
  56. (0.00000) RY (14) C  2            s(  1.06%)p13.09( 13.92%)d71.39( 75.95%)
                                                  f 8.53(  9.07%)
  57. (0.00000) RY (15) C  2            s(  2.45%)p 8.43( 20.61%)d17.55( 42.95%)
                                                  f13.89( 33.99%)
  58. (0.00000) RY (16) C  2            s(  8.67%)p 1.37( 11.87%)d 5.79( 50.22%)
                                                  f 3.37( 29.23%)
  59. (0.00000) RY (17) C  2            s(  1.72%)p 2.30(  3.95%)d39.66( 68.08%)
                                                  f15.30( 26.26%)
  60. (0.00000) RY (18) C  2            s( 13.86%)p 1.63( 22.61%)d 2.40( 33.32%)
                                                  f 2.18( 30.21%)
  61. (0.00000) RY (19) C  2            s(  0.30%)p47.09( 13.99%)d99.99( 69.41%)
                                                  f54.88( 16.30%)
  62. (0.00000) RY (20) C  2            s(  6.09%)p 3.84( 23.40%)d 9.05( 55.13%)
                                                  f 2.52( 15.37%)
  63. (0.00000) RY (21) C  2            s(  0.31%)p24.89(  7.62%)d99.99( 41.11%)
                                                  f99.99( 50.96%)
  64. (0.00000) RY (22) C  2            s(  1.56%)p 3.79(  5.92%)d18.78( 29.36%)
                                                  f40.40( 63.16%)
  65. (0.00000) RY (23) C  2            s(  6.38%)p 4.58( 29.23%)d 8.46( 53.97%)
                                                  f 1.63( 10.41%)
  66. (0.00000) RY (24) C  2            s(  0.45%)p 6.71(  3.03%)d99.99( 45.15%)
                                                  f99.99( 51.37%)
  67. (0.00000) RY (25) C  2            s(  0.13%)p 4.06(  0.54%)d99.99( 16.72%)
                                                  f99.99( 82.60%)
  68. (0.00000) RY (26) C  2            s(  0.32%)p 7.98(  2.58%)d99.99( 34.07%)
                                                  f99.99( 63.03%)
  69. (0.00068) RY ( 1) H  3            s( 90.38%)p 0.11(  9.62%)
                                         0.0005  0.9506  0.0086 -0.2743  0.1361
                                         0.0497
  70. (0.00005) RY ( 2) H  3            s(  0.00%)p 1.00(100.00%)
  71. (0.00005) RY ( 3) H  3            s( 35.35%)p 1.83( 64.65%)
  72. (0.00001) RY ( 4) H  3            s( 10.44%)p 8.58( 89.56%)
  73. (0.00000) RY ( 5) H  3            s( 63.90%)p 0.56( 36.10%)
  74. (0.00068) RY ( 1) H  4            s( 90.38%)p 0.11(  9.62%)
                                         0.0005  0.9506  0.0086 -0.2743 -0.1111
                                         0.0930
  75. (0.00005) RY ( 2) H  4            s(  0.00%)p 1.00(100.00%)
  76. (0.00005) RY ( 3) H  4            s( 35.35%)p 1.83( 64.65%)
  77. (0.00001) RY ( 4) H  4            s( 10.45%)p 8.57( 89.55%)
  78. (0.00000) RY ( 5) H  4            s( 63.90%)p 0.57( 36.10%)
  79. (0.00068) RY ( 1) H  5            s( 90.38%)p 0.11(  9.62%)
                                         0.0005  0.9506  0.0086 -0.2743 -0.0251
                                        -0.1428
  80. (0.00005) RY ( 2) H  5            s(  0.00%)p 1.00(100.00%)
  81. (0.00005) RY ( 3) H  5            s( 35.33%)p 1.83( 64.67%)
  82. (0.00001) RY ( 4) H  5            s( 10.46%)p 8.56( 89.54%)
  83. (0.00000) RY ( 5) H  5            s( 63.90%)p 0.57( 36.10%)
  84. (0.00068) RY ( 1) H  6            s( 90.38%)p 0.11(  9.62%)
                                         0.0005  0.9506  0.0086  0.2743 -0.1361
                                        -0.0497
  85. (0.00005) RY ( 2) H  6            s(  0.00%)p 1.00(100.00%)
  86. (0.00005) RY ( 3) H  6            s( 35.31%)p 1.83( 64.69%)
  87. (0.00001) RY ( 4) H  6            s( 10.46%)p 8.56( 89.54%)
  88. (0.00000) RY ( 5) H  6            s( 63.91%)p 0.56( 36.09%)
  89. (0.00068) RY ( 1) H  7            s( 90.38%)p 0.11(  9.62%)
                                         0.0005  0.9506  0.0086  0.2742  0.0250
                                         0.1428
  90. (0.00005) RY ( 2) H  7            s(  0.00%)p 1.00(100.00%)
  91. (0.00005) RY ( 3) H  7            s( 35.34%)p 1.83( 64.66%)
  92. (0.00001) RY ( 4) H  7            s( 10.44%)p 8.58( 89.56%)
  93. (0.00000) RY ( 5) H  7            s( 63.91%)p 0.56( 36.09%)
  94. (0.00068) RY ( 1) H  8            s( 90.38%)p 0.11(  9.62%)
                                         0.0005  0.9506  0.0086  0.2742  0.1111
                                        -0.0931
  95. (0.00005) RY ( 2) H  8            s(  0.00%)p 1.00(100.00%)
  96. (0.00005) RY ( 3) H  8            s( 35.33%)p 1.83( 64.67%)
  97. (0.00001) RY ( 4) H  8            s( 10.45%)p 8.57( 89.55%)
  98. (0.00000) RY ( 5) H  8            s( 63.91%)p 0.56( 36.09%)


 NHO DIRECTIONALITY AND BOND BENDING (deviation from line of nuclear centers at
                                      the position of maximum hybrid amplitude)

         [Thresholds for printing:  angular deviation  >  1.0 degree]
                                    p- or d-character  > 25.0%
                                    orbital occupancy  >  0.10e

                        Line of Centers        Hybrid 1             Hybrid 2
                        ---------------  -------------------  ------------------
           NBO            Theta   Phi    Theta   Phi    Dev   Theta   Phi    Dev
 ===============================================================================
    None exceeding thresholds


 SECOND ORDER PERTURBATION THEORY ANALYSIS OF FOCK MATRIX IN NBO BASIS

     Threshold for printing:   0.50 kcal/mol
                                                          E(2) E(NL)-E(L) F(L,NL)
      Donor (L) NBO              Acceptor (NL) NBO      kcal/mol   a.u.    a.u.
 ===============================================================================

 within unit  1
    4. BD ( 1) C  1- H  3      14. BD*( 1) C  2- H  6      2.56    0.85   0.042
    5. BD ( 1) C  1- H  4      16. BD*( 1) C  2- H  8      2.56    0.85   0.042
    6. BD ( 1) C  1- H  5      15. BD*( 1) C  2- H  7      2.56    0.85   0.042
    7. BD ( 1) C  2- H  6      11. BD*( 1) C  1- H  3      2.56    0.85   0.042
    8. BD ( 1) C  2- H  7      13. BD*( 1) C  1- H  5      2.56    0.85   0.042
    9. BD ( 1) C  2- H  8      12. BD*( 1) C  1- H  4      2.56    0.85   0.042


 NATURAL BOND ORBITALS (Summary):

                                                     Principal Delocalizations
           NBO                 Occupancy    Energy   (geminal,vicinal,remote)
 ===============================================================================
 Molecular unit  1  (C2H6)
 ------ Lewis --------------------------------------
    1. CR ( 1) C  1             1.99999   -10.20968
    2. CR ( 1) C  2             1.99999   -10.20969
    3. BD ( 1) C  1- C  2       1.99852    -0.52688
    4. BD ( 1) C  1- H  3       1.99117    -0.47087  14(v)
    5. BD ( 1) C  1- H  4       1.99118    -0.47087  16(v)
    6. BD ( 1) C  1- H  5       1.99118    -0.47086  15(v)
    7. BD ( 1) C  2- H  6       1.99118    -0.47083  11(v)
    8. BD ( 1) C  2- H  7       1.99118    -0.47088  13(v)
    9. BD ( 1) C  2- H  8       1.99118    -0.47086  12(v)
 ------ non-Lewis ----------------------------------
   10. BD*( 1) C  1- C  2       0.00015     0.35683
   11. BD*( 1) C  1- H  3       0.00782     0.37671
   12. BD*( 1) C  1- H  4       0.00782     0.37669
   13. BD*( 1) C  1- H  5       0.00782     0.37665
   14. BD*( 1) C  2- H  6       0.00782     0.37656
   15. BD*( 1) C  2- H  7       0.00782     0.37672
   16. BD*( 1) C  2- H  8       0.00782     0.37666
   17. RY ( 1) C  1             0.00060     1.11712
   18. RY ( 2) C  1             0.00060     1.11710
   19. RY ( 3) C  1             0.00012     1.97566
   20. RY ( 4) C  1             0.00000     5.84356
   21. RY ( 5) C  1             0.00000     3.11584
   22. RY ( 6) C  1             0.00000     5.22486
   23. RY ( 7) C  1             0.00000    13.47404
   24. RY ( 8) C  1             0.00000     2.35586
   25. RY ( 9) C  1             0.00000     1.80777
   26. RY (10) C  1             0.00000     2.20218
   27. RY (11) C  1             0.00000     2.13023
   28. RY (12) C  1             0.00000     1.32625
   29. RY (13) C  1             0.00000     3.19096
   30. RY (14) C  1             0.00000     2.01120
   31. RY (15) C  1             0.00000     1.83168
   32. RY (16) C  1             0.00000     1.45477
   33. RY (17) C  1             0.00000     2.94272
   34. RY (18) C  1             0.00000     2.66108
   35. RY (19) C  1             0.00000     3.08341
   36. RY (20) C  1             0.00000     2.67468
   37. RY (21) C  1             0.00000     2.09813
   38. RY (22) C  1             0.00000     2.61551
   39. RY (23) C  1             0.00000     2.86336
   40. RY (24) C  1             0.00000     2.99618
   41. RY (25) C  1             0.00000     2.99371
   42. RY (26) C  1             0.00000     3.05768
   43. RY ( 1) C  2             0.00060     1.11715
   44. RY ( 2) C  2             0.00060     1.11710
   45. RY ( 3) C  2             0.00012     1.97497
   46. RY ( 4) C  2             0.00000     5.84509
   47. RY ( 5) C  2             0.00000     3.11609
   48. RY ( 6) C  2             0.00000     9.97272
   49. RY ( 7) C  2             0.00000     3.67932
   50. RY ( 8) C  2             0.00000     1.98819
   51. RY ( 9) C  2             0.00000     1.79585
   52. RY (10) C  2             0.00000     4.20120
   53. RY (11) C  2             0.00000     2.81356
   54. RY (12) C  2             0.00000     2.25664
   55. RY (13) C  2             0.00000     2.41547
   56. RY (14) C  2             0.00000     3.09478
   57. RY (15) C  2             0.00000     2.98440
   58. RY (16) C  2             0.00000     2.94337
   59. RY (17) C  2             0.00000     2.13439
   60. RY (18) C  2             0.00000     2.76264
   61. RY (19) C  2             0.00000     2.76810
   62. RY (20) C  2             0.00000     2.16166
   63. RY (21) C  2             0.00000     2.54594
   64. RY (22) C  2             0.00000     3.10594
   65. RY (23) C  2             0.00000     2.70974
   66. RY (24) C  2             0.00000     2.75909
   67. RY (25) C  2             0.00000     2.99620
   68. RY (26) C  2             0.00000     2.90717
   69. RY ( 1) H  3             0.00068     0.81172
   70. RY ( 2) H  3             0.00005     2.12011
   71. RY ( 3) H  3             0.00005     1.90668
   72. RY ( 4) H  3             0.00001     2.59948
   73. RY ( 5) H  3             0.00000     2.30626
   74. RY ( 1) H  4             0.00068     0.81172
   75. RY ( 2) H  4             0.00005     2.12011
   76. RY ( 3) H  4             0.00005     1.90669
   77. RY ( 4) H  4             0.00001     2.59944
   78. RY ( 5) H  4             0.00000     2.30631
   79. RY ( 1) H  5             0.00068     0.81169
   80. RY ( 2) H  5             0.00005     2.12010
   81. RY ( 3) H  5             0.00005     1.90672
   82. RY ( 4) H  5             0.00001     2.59939
   83. RY ( 5) H  5             0.00000     2.30638
   84. RY ( 1) H  6             0.00068     0.81160
   85. RY ( 2) H  6             0.00005     2.12008
   86. RY ( 3) H  6             0.00005     1.90686
   87. RY ( 4) H  6             0.00001     2.59945
   88. RY ( 5) H  6             0.00000     2.30630
   89. RY ( 1) H  7             0.00068     0.81163
   90. RY ( 2) H  7             0.00005     2.12008
   91. RY ( 3) H  7             0.00005     1.90682
   92. RY ( 4) H  7             0.00001     2.59931
   93. RY ( 5) H  7             0.00000     2.30628
   94. RY ( 1) H  8             0.00068     0.81163
   95. RY ( 2) H  8             0.00005     2.12007
   96. RY ( 3) H  8             0.00005     1.90683
   97. RY ( 4) H  8             0.00001     2.59936
[...]
     11  0.313344D-03 -0.111704D-02 -0.393429D-01 -0.393480D-01  0.141876D-01
     12 -0.111696D-02  0.313340D-03 -0.393426D-01  0.141879D-01 -0.393477D-01
     13 -0.111698D-02 -0.111706D-02  0.141872D-01 -0.393465D-01 -0.393448D-01
     14 -0.564459D-02 -0.564453D-02  0.170178D-01 -0.704171D-02 -0.704287D-02
     15  0.795881D-03 -0.564505D-02 -0.704285D-02 -0.703946D-02  0.170148D-01
     16 -0.564562D-02  0.793903D-03 -0.704173D-02  0.170138D-01 -0.703944D-02
     17  0.544212D-02  0.332151D-03 -0.379967D-02  0.446311D-02 -0.379803D-02
     18  0.332307D-03  0.544317D-02 -0.379991D-02 -0.379834D-02  0.446341D-02
     19  0.544312D-02  0.544366D-02  0.446417D-02 -0.379950D-02 -0.379994D-02
     20  0.306775D-02 -0.306752D-02  0.000000D+00  0.279417D-02 -0.279370D-02
     21 -0.555152D-03  0.417861D-02 -0.194687D-02  0.668647D-02 -0.474014D-02
     22 -0.417862D-02  0.555407D-03  0.194633D-02  0.474034D-02 -0.668642D-02
     23  0.417861D-02 -0.362300D-02 -0.474001D-02 -0.194581D-02  0.668664D-02
     24  0.555711D-03  0.362313D-02 -0.668637D-02  0.194649D-02  0.474019D-02
     25 -0.306776D-02  0.000000D+00 -0.279317D-02  0.000000D+00  0.279392D-02
     26  0.362313D-02 -0.417857D-02  0.474000D-02 -0.668651D-02  0.194551D-02
     27  0.000000D+00  0.306756D-02  0.279363D-02 -0.279421D-02  0.000000D+00
     28 -0.362325D-02 -0.555645D-03  0.668683D-02 -0.474034D-02 -0.194720D-02
               11            12            13            14            15 
     11  0.509003D-01
     12  0.902302D-02  0.509003D-01
     13  0.902529D-02  0.902442D-02  0.508997D-01
     14 -0.379993D-02 -0.379966D-02  0.446419D-02  0.100842D+00
     15  0.446342D-02 -0.379805D-02 -0.379995D-02 -0.202505D-01  0.100850D+00
     16 -0.379833D-02  0.446312D-02 -0.379953D-02 -0.202516D-01 -0.202525D-01
     17  0.218789D-03  0.291328D-02  0.218539D-03 -0.393426D-01 -0.393478D-01
     18  0.291360D-02  0.218784D-03  0.218499D-03 -0.393429D-01  0.141875D-01
     19  0.218494D-03  0.218540D-03  0.291430D-02  0.141871D-01 -0.393448D-01
     20  0.634822D-02 -0.634804D-02  0.000000D+00  0.000000D+00  0.279371D-02
     21  0.561949D-02 -0.488987D-02 -0.729055D-03 -0.474002D-02 -0.194552D-02
     22  0.489006D-02 -0.561934D-02  0.728987D-03  0.474003D-02 -0.668664D-02
     23 -0.489044D-02 -0.729286D-03  0.561888D-02 -0.194634D-02  0.668643D-02
     24 -0.561917D-02  0.728886D-03  0.488998D-02 -0.668686D-02  0.194720D-02
     25 -0.634860D-02  0.000000D+00  0.634802D-02  0.279319D-02 -0.279392D-02
     26  0.729127D-03  0.489108D-02 -0.561916D-02  0.194686D-02  0.474015D-02
     27  0.000000D+00  0.634925D-02 -0.634806D-02 -0.279365D-02  0.000000D+00
     28 -0.729027D-03  0.561978D-02 -0.489002D-02  0.668640D-02 -0.474020D-02
               16            17            18            19            20 
     16  0.100852D+00
     17  0.141878D-01  0.509003D-01
     18 -0.393481D-01  0.902304D-02  0.509002D-01
     19 -0.393465D-01  0.902444D-02  0.902532D-02  0.508996D-01
     20 -0.279419D-02  0.634803D-02 -0.634821D-02  0.000000D+00  0.135367D-01
     21  0.668652D-02 -0.489107D-02 -0.729130D-03  0.561919D-02  0.357115D-02
     22  0.194580D-02  0.729282D-03  0.489044D-02 -0.561890D-02  0.357127D-02
     23 -0.474036D-02  0.561934D-02 -0.489005D-02 -0.728980D-03  0.357126D-02
     24  0.474035D-02 -0.561977D-02  0.729026D-03  0.489005D-02 -0.639426D-02
     25  0.000000D+00  0.000000D+00  0.634860D-02 -0.634805D-02 -0.639414D-02
     26 -0.668650D-02  0.488986D-02 -0.561947D-02  0.729058D-03  0.357114D-02
     27  0.279422D-02 -0.634924D-02  0.000000D+00  0.634808D-02 -0.639438D-02
     28 -0.194651D-02 -0.728889D-03  0.561917D-02 -0.489001D-02 -0.639426D-02
               21            22            23            24            25 
     21  0.143282D-01
     22  0.396666D-02  0.143277D-01
     23 -0.678989D-02 -0.718526D-02  0.143277D-01
     24  0.396713D-02 -0.678988D-02  0.396655D-02  0.143279D-01
     25 -0.639438D-02  0.357117D-02  0.357117D-02  0.357093D-02  0.135365D-01
     26 -0.718534D-02 -0.678988D-02  0.396665D-02 -0.678983D-02 -0.639437D-02
     27  0.357167D-02 -0.639450D-02 -0.639450D-02  0.357156D-02 -0.639461D-02
     28 -0.678984D-02  0.396655D-02 -0.678987D-02 -0.718545D-02  0.357094D-02
               26            27            28 
     26  0.143282D-01
     27  0.357167D-02  0.135377D-01
     28  0.396713D-02  0.357156D-02  0.143279D-01
 Leave Link  716 at Tue Oct 25 22:28:44 2022, MaxMem=  1342177280 cpu:               0.3 elap:               0.0
 (Enter /home/lmod/software/Binaries/g16/B.01/l103.exe)

 GradGradGradGradGradGradGradGradGradGradGradGradGradGradGradGradGradGrad
 Berny optimization.
 Red2BG is reusing G-inverse.
 Internal  Forces:  Max     0.000075348 RMS     0.000021223
 Search for a local minimum.
 Step number   1 out of a maximum of    2
 All quantities printed in internal units (Hartrees-Bohrs-Radians)
 Second derivative matrix not updated -- analytic derivatives used.
 ITU=  0
     Eigenvalues ---    0.00224   0.04382   0.04383   0.04575   0.04576
     Eigenvalues ---    0.11768   0.12156   0.12184   0.12186   0.17492
     Eigenvalues ---    0.17492   0.31455   0.33687   0.33687   0.33946
     Eigenvalues ---    0.33946   0.34619   0.34882
 Angle between quadratic step and forces=  21.39 degrees.
 Linear search not attempted -- first point.
 Iteration  1 RMS(Cart)=  0.00013625 RMS(Int)=  0.00000001
 Iteration  2 RMS(Cart)=  0.00000001 RMS(Int)=  0.00000000
 ITry= 1 IFail=0 DXMaxC= 2.59D-04 DCOld= 1.00D+10 DXMaxT= 3.00D-01 DXLimC= 3.00D+00 Rises=F
 Variable       Old X    -DE/DX   Delta X   Delta X   Delta X     New X
                                 (Linear)    (Quad)   (Total)
    R1        2.87029  -0.00008   0.00000  -0.00020  -0.00020   2.87009
    R2        2.06478   0.00002   0.00000   0.00007   0.00007   2.06485
    R3        2.06478   0.00002   0.00000   0.00007   0.00007   2.06485
    R4        2.06478   0.00002   0.00000   0.00007   0.00007   2.06485
    R5        2.06478   0.00002   0.00000   0.00007   0.00007   2.06485
    R6        2.06478   0.00002   0.00000   0.00007   0.00007   2.06485
    R7        2.06478   0.00002   0.00000   0.00007   0.00007   2.06485
    A1        1.94452  -0.00002   0.00000  -0.00009  -0.00009   1.94443
    A2        1.94452  -0.00002   0.00000  -0.00010  -0.00010   1.94442
    A3        1.94452  -0.00002   0.00000  -0.00009  -0.00009   1.94443
    A4        1.87556   0.00002   0.00000   0.00010   0.00010   1.87566
    A5        1.87556   0.00002   0.00000   0.00010   0.00010   1.87566
    A6        1.87556   0.00002   0.00000   0.00010   0.00010   1.87566
    A7        1.94452  -0.00002   0.00000  -0.00009  -0.00009   1.94443
    A8        1.94452  -0.00002   0.00000  -0.00009  -0.00009   1.94443
    A9        1.94452  -0.00002   0.00000  -0.00010  -0.00010   1.94442
   A10        1.87556   0.00002   0.00000   0.00010   0.00010   1.87566
   A11        1.87556   0.00002   0.00000   0.00010   0.00010   1.87566
   A12        1.87556   0.00002   0.00000   0.00011   0.00011   1.87566
    D1       -3.14159  -0.00000   0.00000  -0.00000  -0.00000  -3.14159
    D2        1.04720   0.00000   0.00000   0.00000   0.00000   1.04720
    D3       -1.04719  -0.00000   0.00000  -0.00000  -0.00000  -1.04720
    D4        1.04720   0.00000   0.00000  -0.00000  -0.00000   1.04720
    D5       -1.04720   0.00000   0.00000   0.00000   0.00000  -1.04720
    D6       -3.14159  -0.00000   0.00000  -0.00000  -0.00000   3.14159
    D7       -1.04719  -0.00000   0.00000  -0.00000  -0.00000  -1.04720
    D8       -3.14159   0.00000   0.00000  -0.00000  -0.00000  -3.14159
    D9        1.04720  -0.00000   0.00000  -0.00001  -0.00001   1.04720
         Item               Value     Threshold  Converged?
 Maximum Force            0.000075     0.000450     YES
 RMS     Force            0.000021     0.000300     YES
 Maximum Displacement     0.000259     0.001800     YES
 RMS     Displacement     0.000136     0.001200     YES
 Predicted change in Energy=-2.228133D-08
 Optimization completed.
    -- Stationary point found.
                           ----------------------------
                           !   Optimized Parameters   !
                           ! (Angstroms and Degrees)  !
 --------------------------                            --------------------------
 ! Name  Definition              Value          Derivative Info.                !
 --------------------------------------------------------------------------------
 ! R1    R(1,2)                  1.5189         -DE/DX =   -0.0001              !
 ! R2    R(1,3)                  1.0926         -DE/DX =    0.0                 !
 ! R3    R(1,4)                  1.0926         -DE/DX =    0.0                 !
 ! R4    R(1,5)                  1.0926         -DE/DX =    0.0                 !
 ! R5    R(2,6)                  1.0926         -DE/DX =    0.0                 !
 ! R6    R(2,7)                  1.0926         -DE/DX =    0.0                 !
 ! R7    R(2,8)                  1.0926         -DE/DX =    0.0                 !
 ! A1    A(2,1,3)              111.413          -DE/DX =    0.0                 !
 ! A2    A(2,1,4)              111.4129         -DE/DX =    0.0                 !
 ! A3    A(2,1,5)              111.4128         -DE/DX =    0.0                 !
 ! A4    A(3,1,4)              107.4617         -DE/DX =    0.0                 !
 ! A5    A(3,1,5)              107.4617         -DE/DX =    0.0                 !
 ! A6    A(4,1,5)              107.4616         -DE/DX =    0.0                 !
 ! A7    A(1,2,6)              111.4129         -DE/DX =    0.0                 !
 ! A8    A(1,2,7)              111.4128         -DE/DX =    0.0                 !
 ! A9    A(1,2,8)              111.4128         -DE/DX =    0.0                 !
 ! A10   A(6,2,7)              107.4618         -DE/DX =    0.0                 !
 ! A11   A(6,2,8)              107.4618         -DE/DX =    0.0                 !
 ! A12   A(7,2,8)              107.4616         -DE/DX =    0.0                 !
 ! D1    D(3,1,2,6)           -179.9999         -DE/DX =    0.0                 !
 ! D2    D(3,1,2,7)             60.0            -DE/DX =    0.0                 !
 ! D3    D(3,1,2,8)            -59.9997         -DE/DX =    0.0                 !
 ! D4    D(4,1,2,6)             60.0            -DE/DX =    0.0                 !
 ! D5    D(4,1,2,7)            -60.0001         -DE/DX =    0.0                 !
 ! D6    D(4,1,2,8)            180.0002         -DE/DX =    0.0                 !
 ! D7    D(5,1,2,6)            -59.9998         -DE/DX =    0.0                 !
 ! D8    D(5,1,2,7)           -180.0            -DE/DX =    0.0                 !
 ! D9    D(5,1,2,8)             60.0003         -DE/DX =    0.0                 !
 --------------------------------------------------------------------------------
 GradGradGradGradGradGradGradGradGradGradGradGradGradGradGradGradGradGrad

 Leave Link  103 at Tue Oct 25 22:28:44 2022, MaxMem=  1342177280 cpu:               0.1 elap:               0.0
 (Enter /home/lmod/software/Binaries/g16/B.01/l9999.exe)

 ----------------------------------------------------------------------

 Electric dipole moment (input orientation):
 (Debye = 10**-18 statcoulomb cm , SI units = C m)
                  (au)            (Debye)         (10**-30 SI)
   Tot        0.000000D+00      0.000000D+00      0.000000D+00
   x          0.000000D+00      0.000000D+00      0.000000D+00
   y          0.000000D+00      0.000000D+00      0.000000D+00
   z          0.000000D+00      0.000000D+00      0.000000D+00

 Dipole polarizability, Alpha (input orientation).
 (esu units = cm**3 , SI units = C**2 m**2 J**-1)
 Alpha(0;0):
               (au)            (10**-24 esu)      (10**-40 SI)
   iso        0.268826D+02      0.398359D+01      0.443234D+01
   aniso      0.301516D+01      0.446800D+00      0.497132D+00
   xx         0.288927D+02      0.428146D+01      0.476376D+01
   yx         0.539502D-02      0.799460D-03      0.889519D-03
   yy         0.258775D+02      0.383465D+01      0.426663D+01
   zx        -0.103353D-02     -0.153153D-03     -0.170406D-03
   zy         0.000000D+00      0.000000D+00      0.000000D+00
   zz         0.258776D+02      0.383466D+01      0.426664D+01

 ----------------------------------------------------------------------

 Dipole orientation:
     6         -0.16521548          0.04542239          0.05016159
     6          2.48815452         -0.66372713         -0.78368158
     1         -0.39036803         -0.14846619          2.09345125
     1         -1.58389423         -1.15742993         -0.84639496
     1         -0.61194650          2.00089733         -0.43960030
     1          2.71330606         -0.46983460         -2.82696998
     1          2.93488366         -2.61920288         -0.29392042
     1          3.90683149          0.53912251          0.11288106

 Electric dipole moment (dipole orientation):
 (Debye = 10**-18 statcoulomb cm , SI units = C m)
                  (au)            (Debye)         (10**-30 SI)
   Tot        0.000000D+00      0.000000D+00      0.000000D+00
   x          0.000000D+00      0.000000D+00      0.000000D+00
   y          0.000000D+00      0.000000D+00      0.000000D+00
   z          0.000000D+00      0.000000D+00      0.000000D+00

 Dipole polarizability, Alpha (dipole orientation).
 (esu units = cm**3 , SI units = C**2 m**2 J**-1)
 Alpha(0;0):
               (au)            (10**-24 esu)      (10**-40 SI)
   iso        0.268826D+02      0.398359D+01      0.443234D+01
   aniso      0.301516D+01      0.446800D+00      0.497132D+00
   xx         0.284542D+02      0.421648D+01      0.469146D+01
   yx        -0.688633D+00     -0.102045D+00     -0.113540D+00
   yy         0.260616D+02      0.386194D+01      0.429698D+01
   zx        -0.809742D+00     -0.119991D+00     -0.133508D+00
   zy         0.216418D+00      0.320699D-01      0.356825D-01
   zz         0.261320D+02      0.387236D+01      0.430858D+01

 ----------------------------------------------------------------------
 1\1\GINC-SN010\Freq\RPBE1PBE\def2TZVP\C2H6\OYANEZ\25-Oct-2022\0\\#P Ge
 om=AllCheck Guess=TCheck SCRF=Check GenChk RPBE1PBE/def2TZVP Freq\\1_S
 iLi-0000 E=0.000000\\0,1\C,-0.0944691215,-0.0011849,-0.0004895044\C,1.
 4244199648,0.0015342353,-0.0010105133\H,-0.495197323,1.0153129301,-0.0
 003841129\H,-0.4921617542,-0.510478805,0.8805953812\H,-0.4927645856,-0
 .5105340048,-0.8812702482\H,1.8251469601,-1.0149635104,-0.0011178097\H
 ,1.8227147265,0.5108828117,0.8797709777\H,1.8221111329,0.510831243,-0.
 8820941705\\Version=ES64L-G16RevB.01\State=1-A\HF=-79.7501839\RMSD=1.9
 62e-10\RMSF=2.142e-05\ZeroPoint=0.0746902\Thermal=0.0781763\Dipole=0.,
 0.0000002,0.\DipoleDeriv=0.047981,-0.00006,0.0000107,-0.0000545,0.0783
 333,-0.0000011,0.0000115,-0.0000006,0.0783306,0.0479804,-0.00006,0.000
 0109,-0.0000543,0.0783332,-0.0000008,0.0000117,-0.0000007,0.0783305,-0
 .0162763,0.0580419,0.0000291,0.0998847,-0.1258151,-0.0000276,0.0000276
 ,-0.0000131,0.0738762,-0.0158056,-0.0289599,0.049916,-0.0498825,0.0237
 465,0.0866944,0.0861586,0.08675,-0.0761556,-0.0158993,-0.029022,-0.049
 9557,-0.0499478,0.0237351,-0.0866659,-0.0861977,-0.0867362,-0.0760512,
 -0.016276,0.0580414,0.0000291,0.0998845,-0.1258143,-0.0000279,0.000027
 7,-0.0000135,0.0738762,-0.015899,-0.0290218,-0.0499557,-0.0499476,0.02
 37353,-0.0866658,-0.0861978,-0.0867359,-0.0760514,-0.0158052,-0.028959
 6,0.0499157,-0.0498826,0.0237461,0.0866946,0.0861584,0.08675,-0.076155
 2\Polar=28.8927055,0.005395,25.8775337,-0.0010335,0.0000037,25.877594\
 Quadrupole=-0.368329,0.184169,0.18416,-0.0009912,0.0001877,0.\PG=C01 [
 X(C2H6)]\NImag=0\\0.48374130,-0.00015267,0.56803610,0.00003087,-0.0000
 0271,0.56803942,-0.21118797,-0.00024039,0.00004564,0.48374063,-0.00024
 039,-0.07829742,0.00000025,-0.00015303,0.56803784,0.00004566,0.0000002
 2,-0.07829768,0.00003087,-0.00000294,0.56803912,-0.07826526,0.08654553
 ,0.00000822,-0.01295284,0.03292488,0.00000312,0.08852588,0.08810532,-0
 .28053840,-0.00002197,-0.00096725,0.00208469,0.00000036,-0.09661288,0.
 30266278,0.00000784,-0.00002080,-0.04700958,0.00000434,-0.00001148,-0.
 00065751,-0.00001167,0.00002382,0.04581124,-0.07775046,-0.04300287,0.0
 7440648,-0.01285585,-0.01649835,0.02854430,0.00334788,0.00458450,-0.01
 000528,0.08795584,-0.04378295,-0.10561954,0.10140329,0.00044717,-0.000
 01525,-0.00111206,-0.01086258,-0.01357558,0.02515401,0.04803144,0.1102
 7656,0.07575769,0.10140522,-0.22245097,-0.00080838,-0.00115856,0.00134
 710,-0.00103402,-0.00095963,0.00041592,-0.08308491,-0.11153318,0.23877
 533,-0.07785354,-0.04307701,-0.07450515,-0.01287527,-0.01649913,-0.028
 53351,0.00335555,0.00458603,0.01000286,0.00331719,0.00633552,0.0088921
 1,0.08806976,-0.04385721,-0.10563514,-0.10137898,0.00044797,-0.0000150
 2,0.00111183,-0.01087966,-0.01357729,-0.02514576,0.00634408,0.00742452
 ,0.01307526,0.04811294,0.11029344,-0.07585590,-0.10138179,-0.22233657,
 0.00081789,0.00116989,0.00136582,0.00103268,0.00095761,0.00040988,-0.0
 0890922,-0.01308104,-0.02055405,0.08318776,0.11150661,0.23864866,-0.01
 295290,0.03292492,0.00000316,-0.07826514,0.08654578,0.00000840,-0.0070
 3669,-0.00069668,0.00000275,0.00151266,-0.00020942,0.00045423,0.001512
 83,-0.00020919,-0.00045530,0.08852581,-0.00096724,0.00208468,0.0000003
 7,0.08810559,-0.28053949,-0.00002240,-0.00069669,0.00185493,0.00000020
 ,0.00050042,0.00054438,-0.00030230,0.00050054,0.00054449,0.00030191,-0
 .09661315,0.30266377,0.00000432,-0.00001148,-0.00065750,0.00000803,-0.
 00002125,-0.04700952,0.00000274,0.00000020,0.00092512,0.00004451,-0.00
 054819,0.00005223,-0.00004535,0.00054821,0.00005269,-0.00001185,0.0000
 2432,0.04581111,-0.01287528,-0.01649911,-0.02853355,-0.07785338,-0.043
 07679,-0.07450502,0.00151282,0.00050055,-0.00004535,0.00151321,-0.0002
 8484,0.00040933,-0.00703971,0.00032595,0.00059193,0.00335554,0.0045860
 0,0.01000289,0.08806963,0.00044795,-0.00001503,0.00111181,-0.04385699,
 -0.10563502,-0.10137882,-0.00020919,0.00054449,0.00054821,-0.00028488,
 -0.00019437,-0.00012188,0.00032594,0.00115938,0.00040471,-0.01087968,-
 0.01357719,-0.02514576,0.04811275,0.11029321,0.00081789,0.00116988,0.0
 0136581,-0.07585579,-0.10138164,-0.22233673,-0.00045530,0.00030191,0.0
 0005269,-0.00040984,0.00012209,0.00078964,0.00059193,0.00040471,0.0016
 2394,0.00103267,0.00095761,0.00040985,0.08318765,0.11150642,0.23864888
 ,-0.01285590,-0.01649840,0.02854432,-0.07775019,-0.04300297,0.07440618
 ,0.00151268,0.00050042,0.00004451,-0.00704048,0.00032564,-0.00058604,0
 .00151320,-0.00028488,-0.00040984,0.00334787,0.00458452,-0.01000530,0.
 00331718,0.00634409,-0.00890921,0.08795563,0.00044718,-0.00001524,-0.0
 0111206,-0.04378307,-0.10562032,0.10140382,-0.00020941,0.00054439,-0.0
 0054819,0.00032566,0.00115929,-0.00040493,-0.00028483,-0.00019438,0.00
 012208,-0.01086258,-0.01357556,0.02515395,0.00633548,0.00742453,-0.013
 08098,0.04803158,0.11027729,-0.00080836,-0.00115855,0.00134706,0.07575
 741,0.10140574,-0.22245060,0.00045423,-0.00030230,0.00005224,-0.000586
 03,-0.00040493,0.00162480,0.00040933,-0.00012188,0.00078964,-0.0010340
 6,-0.00095970,0.00041600,0.00889211,0.01307531,-0.02055408,-0.08308462
 ,-0.11153369,0.23877495\\-0.00005365,0.00000081,0.00000018,0.00005410,
 -0.00000130,-0.00000030,-0.00000660,-0.00002866,0.00000003,-0.00000768
 ,0.00001431,-0.00002465,-0.00000741,0.00001423,0.00002462,0.00000633,0
 .00002885,-0.00000001,0.00000737,-0.00001408,-0.00002460,0.00000755,-0
 .00001415,0.00002473\\\@


 ... IT CAN BE VERY DIFFICULT, IN THESE COMPLEX TIMES,
 TO UNDERSTAND JUST HOW SCIENTISTS DO WHAT THEY DO.

                     DON MOSER IN THE FEBRUARY 1979 SMITHSONIAN
 Job cpu time:       0 days  0 hours  2 minutes 50.7 seconds.
 Elapsed time:       0 days  0 hours  0 minutes 17.6 seconds.
 File lengths (MBytes):  RWF=    272 Int=      0 D2E=      0 Chk=     32 Scr=     32
 Normal termination of Gaussian 16 at Tue Oct 25 22:28:44 2022.
