 Entering Gaussian System, Link 0=/home/lmod/software/Binaries/g16/B.01/g16
 Input=Ethylene.com
 Output=Ethylene.log
 Initial command:
 /home/lmod/software/Binaries/g16/B.01/l1.exe "/home/oyanez/Gaussian/coms/Gau-134858.inp" -scrdir="/home/oyanez/Gaussian/coms/"
 Entering Link 1 = /home/lmod/software/Binaries/g16/B.01/l1.exe PID=    134860.
  
 Copyright (c) 1988-2017, Gaussian, Inc.  All Rights Reserved.
  
 This is part of the Gaussian(R) 16 program.  It is based on
 the Gaussian(R) 09 system (copyright 2009, Gaussian, Inc.),
 the Gaussian(R) 03 system (copyright 2003, Gaussian, Inc.),
 the Gaussian(R) 98 system (copyright 1998, Gaussian, Inc.),
 the Gaussian(R) 94 system (copyright 1995, Gaussian, Inc.),
 the Gaussian 92(TM) system (copyright 1992, Gaussian, Inc.),
 the Gaussian 90(TM) system (copyright 1990, Gaussian, Inc.),
 the Gaussian 88(TM) system (copyright 1988, Gaussian, Inc.),
 the Gaussian 86(TM) system (copyright 1986, Carnegie Mellon
 University), and the Gaussian 82(TM) system (copyright 1983,
 Carnegie Mellon University). Gaussian is a federally registered
 trademark of Gaussian, Inc.
  
 This software contains proprietary and confidential information,
 including trade secrets, belonging to Gaussian, Inc.
  
 This software is provided under written license and may be
 used, copied, transmitted, or stored only in accord with that
 written license.
  
 The following legend is applicable only to US Government
 contracts under FAR:
  
                    RESTRICTED RIGHTS LEGEND
  
 Use, reproduction and disclosure by the US Government is
 subject to restrictions as set forth in subparagraphs (a)
 and (c) of the Commercial Computer Software - Restricted
 Rights clause in FAR 52.227-19.
  
 Gaussian, Inc.
 340 Quinnipiac St., Bldg. 40, Wallingford CT 06492
  
  
 ---------------------------------------------------------------
 Warning -- This program may not be used in any manner that
 competes with the business of Gaussian, Inc. or will provide
 assistance to any competitor of Gaussian, Inc.  The licensee
 of this program is prohibited from giving any competitor of
 Gaussian, Inc. access to this program.  By using this program,
 the user acknowledges that Gaussian, Inc. is engaged in the
 business of creating and licensing software in the field of
 computational chemistry and represents and warrants to the
 licensee that it is not a competitor of Gaussian, Inc. and that
 it will not use this program in any manner prohibited above.
 ---------------------------------------------------------------
  

 Cite this work as:
 Gaussian 16, Revision B.01,
 M. J. Frisch, G. W. Trucks, H. B. Schlegel, G. E. Scuseria, 
 M. A. Robb, J. R. Cheeseman, G. Scalmani, V. Barone, 
 G. A. Petersson, H. Nakatsuji, X. Li, M. Caricato, A. V. Marenich, 
 J. Bloino, B. G. Janesko, R. Gomperts, B. Mennucci, H. P. Hratchian, 
 J. V. Ortiz, A. F. Izmaylov, J. L. Sonnenberg, D. Williams-Young, 
 F. Ding, F. Lipparini, F. Egidi, J. Goings, B. Peng, A. Petrone, 
 T. Henderson, D. Ranasinghe, V. G. Zakrzewski, J. Gao, N. Rega, 
 G. Zheng, W. Liang, M. Hada, M. Ehara, K. Toyota, R. Fukuda, 
 J. Hasegawa, M. Ishida, T. Nakajima, Y. Honda, O. Kitao, H. Nakai, 
 T. Vreven, K. Throssell, J. A. Montgomery, Jr., J. E. Peralta, 
 F. Ogliaro, M. J. Bearpark, J. J. Heyd, E. N. Brothers, K. N. Kudin, 
 V. N. Staroverov, T. A. Keith, R. Kobayashi, J. Normand, 
 K. Raghavachari, A. P. Rendell, J. C. Burant, S. S. Iyengar, 
 J. Tomasi, M. Cossi, J. M. Millam, M. Klene, C. Adamo, R. Cammi, 
 J. W. Ochterski, R. L. Martin, K. Morokuma, O. Farkas, 
 J. B. Foresman, and D. J. Fox, Gaussian, Inc., Wallingford CT, 2016.
 
 ******************************************
 Gaussian 16:  ES64L-G16RevB.01 20-Dec-2017
                25-Oct-2022 
 ******************************************
 %mem=10gb
 %nproc=10
 Will use up to   10 processors via shared memory.
 -----------------------------------------
 #p PBE1PBE/Def2TZVP Freq Opt pop=nbo6read
 -----------------------------------------
 1/18=20,19=15,26=3,38=1,163=2/1,3;
 2/9=110,12=2,17=6,18=5,40=1/2;
 3/5=44,7=101,11=2,25=1,30=1,71=1,74=-13/1,2,3;
 4//1;
 5/5=2,38=5/2;
 6/7=2,8=2,9=2,10=2,28=1,40=2,113=1,114=1,124=2103/1,12;
 7//1,2,3,16;
 1/18=20,19=15,26=3/3(2);
 2/9=110/2;
 99//99;
 2/9=110/2;
 3/5=44,7=101,11=2,25=1,30=1,71=1,74=-13/1,2,3;
 4/5=5,16=3,69=1/1;
 5/5=2,38=5/2;
 7//1,2,3,16;
 1/18=20,19=15,26=3/3(-5);
 2/9=110/2;
 6/7=2,8=2,9=2,10=2,19=2,28=1,40=2,113=1,114=1,124=2103/1,12;
 99/9=1/99;
 Leave Link    1 at Tue Oct 25 22:28:12 2022, MaxMem=  1342177280 cpu:               3.3 elap:               0.4
 (Enter /home/lmod/software/Binaries/g16/B.01/l101.exe)
 ----------------------
 1_SiLi-0000 E=0.000000
 ----------------------
 Symbolic Z-matrix:
 Charge =  0 Multiplicity = 1
 C                    -0.0006   -0.0009   -0.0006 
 C                     1.3307    0.0013   -0.001 
 H                    -0.5465    0.6657    0.6671 
 H                    -0.5447   -0.6693   -0.6679 
 H                     1.8748    0.6697    0.6664 
 H                     1.8766   -0.6653   -0.6686 
 
 ITRead=  0  0  0  0  0  0
 MicOpt= -1 -1 -1 -1 -1 -1
 NAtoms=      6 NQM=        6 NQMF=       0 NMMI=      0 NMMIF=      0
                NMic=       0 NMicF=      0.
                    Isotopes and Nuclear Properties:
 (Nuclear quadrupole moments (NQMom) in fm**2, nuclear magnetic moments (NMagM)
  in nuclear magnetons)

  Atom         1           2           3           4           5           6
 IAtWgt=          12          12           1           1           1           1
 AtmWgt=  12.0000000  12.0000000   1.0078250   1.0078250   1.0078250   1.0078250
 NucSpn=           0           0           1           1           1           1
 AtZEff=  -0.0000000  -0.0000000  -0.0000000  -0.0000000  -0.0000000  -0.0000000
 NQMom=    0.0000000   0.0000000   0.0000000   0.0000000   0.0000000   0.0000000
 NMagM=    0.0000000   0.0000000   2.7928460   2.7928460   2.7928460   2.7928460
 AtZNuc=   6.0000000   6.0000000   1.0000000   1.0000000   1.0000000   1.0000000
 Leave Link  101 at Tue Oct 25 22:28:12 2022, MaxMem=  1342177280 cpu:               2.5 elap:               0.3
 (Enter /home/lmod/software/Binaries/g16/B.01/l103.exe)

 GradGradGradGradGradGradGradGradGradGradGradGradGradGradGradGradGradGrad
 Berny optimization.
 Initialization pass.
                           ----------------------------
                           !    Initial Parameters    !
                           ! (Angstroms and Degrees)  !
 --------------------------                            --------------------------
 ! Name  Definition              Value          Derivative Info.                !
 --------------------------------------------------------------------------------
 ! R1    R(1,2)                  1.3313         estimate D2E/DX2                !
 ! R2    R(1,3)                  1.09           estimate D2E/DX2                !
 ! R3    R(1,4)                  1.09           estimate D2E/DX2                !
 ! R4    R(2,5)                  1.0901         estimate D2E/DX2                !
 ! R5    R(2,6)                  1.09           estimate D2E/DX2                !
 ! A1    A(2,1,3)              119.9987         estimate D2E/DX2                !
 ! A2    A(2,1,4)              120.0003         estimate D2E/DX2                !
 ! A3    A(3,1,4)              120.001          estimate D2E/DX2                !
 ! A4    A(1,2,5)              119.9984         estimate D2E/DX2                !
 ! A5    A(1,2,6)              120.0006         estimate D2E/DX2                !
 ! A6    A(5,2,6)              120.001          estimate D2E/DX2                !
 ! D1    D(3,1,2,5)              0.0012         estimate D2E/DX2                !
 ! D2    D(3,1,2,6)            179.9957         estimate D2E/DX2                !
 ! D3    D(4,1,2,5)           -179.9957         estimate D2E/DX2                !
 ! D4    D(4,1,2,6)             -0.0012         estimate D2E/DX2                !
 --------------------------------------------------------------------------------
 Trust Radius=3.00D-01 FncErr=1.00D-07 GrdErr=1.00D-06 EigMax=2.50D+02 EigMin=1.00D-04
 Number of steps in this run=     25 maximum allowed number of steps=    100.
 GradGradGradGradGradGradGradGradGradGradGradGradGradGradGradGradGradGrad

 Leave Link  103 at Tue Oct 25 22:28:12 2022, MaxMem=  1342177280 cpu:               0.3 elap:               0.1
 (Enter /home/lmod/software/Binaries/g16/B.01/l202.exe)
                          Input orientation:                          
 ---------------------------------------------------------------------
 Center     Atomic      Atomic             Coordinates (Angstroms)
 Number     Number       Type             X           Y           Z
 ---------------------------------------------------------------------
      1          6           0       -0.000600   -0.000900   -0.000600
      2          6           0        1.330700    0.001300   -0.001000
      3          1           0       -0.546500    0.665700    0.667100
      4          1           0       -0.544700   -0.669300   -0.667900
      5          1           0        1.874800    0.669700    0.666400
      6          1           0        1.876600   -0.665300   -0.668600
 ---------------------------------------------------------------------
                    Distance matrix (angstroms):
                    1          2          3          4          5
     1  C    0.000000
     2  C    1.331302   0.000000
     3  H    1.090039   2.100396   0.000000
     4  H    1.089997   2.100377   1.887976   0.000000
     5  H    2.100409   1.090058   2.421303   3.070384   0.000000
     6  H    2.100365   1.089978   3.070353   2.421303   1.887976
                    6
     6  H    0.000000
 Stoichiometry    C2H4
 Framework group  C1[X(C2H4)]
 Deg. of freedom    12
 Full point group                 C1      NOp   1
 Largest Abelian subgroup         C1      NOp   1
 Largest concise Abelian subgroup C1      NOp   1
                         Standard orientation:                         
 ---------------------------------------------------------------------
 Center     Atomic      Atomic             Coordinates (Angstroms)
 Number     Number       Type             X           Y           Z
 ---------------------------------------------------------------------
      1          6           0       -0.665651   -0.000004   -0.000006
      2          6           0        0.665651   -0.000014   -0.000012
      3          1           0       -1.210642    0.944014    0.000022
      4          1           0       -1.210661   -0.943962    0.000022
      5          1           0        1.210661    0.944015    0.000031
      6          1           0        1.210642   -0.943961    0.000031
 ---------------------------------------------------------------------
 Rotational constants (GHZ):         140.6821943          30.5498341          25.0993797
 Leave Link  202 at Tue Oct 25 22:28:12 2022, MaxMem=  1342177280 cpu:               0.4 elap:               0.1
 (Enter /home/lmod/software/Binaries/g16/B.01/l301.exe)
 Standard basis: def2TZVP (5D, 7F)
 Ernie: Thresh=  0.10000D-02 Tol=  0.10000D-05 Strict=F.
 There are    96 symmetry adapted cartesian basis functions of A   symmetry.
 There are    86 symmetry adapted basis functions of A   symmetry.
    86 basis functions,   134 primitive gaussians,    96 cartesian basis functions
     8 alpha electrons        8 beta electrons
       nuclear repulsion energy        33.3500055296 Hartrees.
 IExCor= 1009 DFT=T Ex+Corr=PBE1PBE ExCW=0 ScaHFX=  0.250000
 ScaDFX=  0.750000  0.750000  1.000000  1.000000 ScalE2=  1.000000  1.000000
 IRadAn=      5 IRanWt=     -1 IRanGd=            0 ICorTp=0 IEmpDi=  4
 NAtoms=    6 NActive=    6 NUniq=    6 SFac= 1.00D+00 NAtFMM=   60 NAOKFM=F Big=F
 Integral buffers will be    131072 words long.
 Raffenetti 2 integral format.
 Two-electron integral symmetry is turned on.
 Leave Link  301 at Tue Oct 25 22:28:12 2022, MaxMem=  1342177280 cpu:               0.7 elap:               0.1
 (Enter /home/lmod/software/Binaries/g16/B.01/l302.exe)
 NPDir=0 NMtPBC=     1 NCelOv=     1 NCel=       1 NClECP=     1 NCelD=      1
         NCelK=      1 NCelE2=     1 NClLst=     1 CellRange=     0.0.
 One-electron integrals computed using PRISM.
 One-electron integral symmetry used in STVInt
   1 Symmetry operations used in ECPInt.
 ECPInt:  NShTT=     741 NPrTT=    2136 LenC2=     742 LenP2D=    1978.
 LDataN:  DoStor=T MaxTD1= 6 Len=  172
 NBasis=    86 RedAO= T EigKep=  2.26D-04  NBF=    86
 NBsUse=    86 1.00D-06 EigRej= -1.00D+00 NBFU=    86
 Precomputing XC quadrature grid using
 IXCGrd= 4 IRadAn=           5 IRanWt=          -1 IRanGd=           0 AccXCQ= 0.00D+00.
 Generated NRdTot=       0 NPtTot=           0 NUsed=           0 NTot=          32
 NSgBfM=    96    96    96    96    96 MxSgAt=     6 MxSgA2=     6.
 Leave Link  302 at Tue Oct 25 22:28:13 2022, MaxMem=  1342177280 cpu:               2.0 elap:               0.3
 (Enter /home/lmod/software/Binaries/g16/B.01/l303.exe)
 DipDrv:  MaxL=1.
 Leave Link  303 at Tue Oct 25 22:28:13 2022, MaxMem=  1342177280 cpu:               0.4 elap:               0.1
 (Enter /home/lmod/software/Binaries/g16/B.01/l401.exe)
 ExpMin= 9.52D-02 ExpMax= 1.36D+04 ExpMxC= 4.63D+02 IAcc=3 IRadAn=         5 AccDes= 0.00D+00
 Harris functional with IExCor= 1009 and IRadAn=       5 diagonalized for initial guess.
 HarFok:  IExCor= 1009 AccDes= 0.00D+00 IRadAn=         5 IDoV= 1 UseB2=F ITyADJ=14
 ICtDFT=  3500011 ScaDFX=  1.000000  1.000000  1.000000  1.000000
 FoFCou: FMM=F IPFlag=           0 FMFlag=      100000 FMFlg1=           0
         NFxFlg=           0 DoJE=T BraDBF=F KetDBF=T FulRan=T
         wScrn=  0.000000 ICntrl=       500 IOpCl=  0 I1Cent=   200000004 NGrid=           0
         NMat0=    1 NMatS0=      1 NMatT0=    0 NMatD0=    1 NMtDS0=    0 NMtDT0=    0
 Petite list used in FoFCou.
 Harris En= -78.5783774627483    
 JPrj=0 DoOrth=F DoCkMO=F.
 Leave Link  401 at Tue Oct 25 22:28:13 2022, MaxMem=  1342177280 cpu:               2.8 elap:               0.3
 (Enter /home/lmod/software/Binaries/g16/B.01/l502.exe)
 Keep R1 ints in memory in canonical form, NReq=16224079.
 FoFCou: FMM=F IPFlag=           0 FMFlag=           0 FMFlg1=           0
         NFxFlg=           0 DoJE=F BraDBF=F KetDBF=F FulRan=T
         wScrn=  0.000000 ICntrl=       600 IOpCl=  0 I1Cent=           0 NGrid=           0
         NMat0=    1 NMatS0=   3741 NMatT0=    0 NMatD0=    1 NMtDS0=    0 NMtDT0=    0
 Symmetry not used in FoFCou.
 Two-electron integral symmetry not used.
 Closed shell SCF:
 Using DIIS extrapolation, IDIIS=  1040.
 NGot=  1342177280 LenX=  1335157437 LenY=  1335147780
 Requested convergence on RMS density matrix=1.00D-08 within 128 cycles.
 Requested convergence on MAX density matrix=1.00D-06.
 Requested convergence on             energy=1.00D-06.
 No special actions if energy rises.
 Integral accuracy reduced to 1.0D-05 until final iterations.

 Cycle   1  Pass 0  IDiag  1:
 E= -78.4199272128540    
 DIIS: error= 4.21D-02 at cycle   1 NSaved=   1.
 NSaved= 1 IEnMin= 1 EnMin= -78.4199272128540     IErMin= 1 ErrMin= 4.21D-02
 ErrMax= 4.21D-02  0.00D+00 EMaxC= 1.00D-01 BMatC= 8.84D-02 BMatP= 8.84D-02
 IDIUse=3 WtCom= 5.79D-01 WtEn= 4.21D-01
 Coeff-Com:  0.100D+01
 Coeff-En:   0.100D+01
 Coeff:      0.100D+01
 Gap=     0.287 Goal=   None    Shift=    0.000
 GapD=    0.287 DampG=1.000 DampE=0.500 DampFc=0.5000 IDamp=-1.
 Damping current iteration by 5.00D-01
 RMSDP=4.39D-03 MaxDP=6.63D-02              OVMax= 1.91D-01

 Cycle   2  Pass 0  IDiag  1:
 E= -78.4636243111104     Delta-E=       -0.043697098256 Rises=F Damp=T
 DIIS: error= 4.99D-03 at cycle   2 NSaved=   2.
 NSaved= 2 IEnMin= 2 EnMin= -78.4636243111104     IErMin= 2 ErrMin= 4.99D-03
 ErrMax= 4.99D-03  0.00D+00 EMaxC= 1.00D-01 BMatC= 2.67D-03 BMatP= 8.84D-02
 IDIUse=3 WtCom= 9.50D-01 WtEn= 4.99D-02
 Coeff-Com:  0.470D-02 0.995D+00
 Coeff-En:   0.320D-01 0.968D+00
 Coeff:      0.606D-02 0.994D+00
 Gap=     0.302 Goal=   None    Shift=    0.000
 RMSDP=5.76D-04 MaxDP=5.18D-03 DE=-4.37D-02 OVMax= 1.00D-01

 Cycle   3  Pass 0  IDiag  1:
 E= -78.5113909156127     Delta-E=       -0.047766604502 Rises=F Damp=F
 DIIS: error= 2.30D-03 at cycle   3 NSaved=   3.
 NSaved= 3 IEnMin= 3 EnMin= -78.5113909156127     IErMin= 3 ErrMin= 2.30D-03
 ErrMax= 2.30D-03  0.00D+00 EMaxC= 1.00D-01 BMatC= 1.31D-04 BMatP= 2.67D-03
 IDIUse=3 WtCom= 9.77D-01 WtEn= 2.30D-02
 Coeff-Com: -0.310D-01 0.915D-01 0.940D+00
 Coeff-En:   0.000D+00 0.000D+00 0.100D+01
 Coeff:     -0.303D-01 0.894D-01 0.941D+00
 Gap=     0.293 Goal=   None    Shift=    0.000
 RMSDP=9.48D-05 MaxDP=1.48D-03 DE=-4.78D-02 OVMax= 4.47D-03

 Cycle   4  Pass 0  IDiag  1:
 E= -78.5115257575615     Delta-E=       -0.000134841949 Rises=F Damp=F
 DIIS: error= 2.64D-04 at cycle   4 NSaved=   4.
 NSaved= 4 IEnMin= 4 EnMin= -78.5115257575615     IErMin= 4 ErrMin= 2.64D-04
 ErrMax= 2.64D-04  0.00D+00 EMaxC= 1.00D-01 BMatC= 2.33D-06 BMatP= 1.31D-04
 IDIUse=3 WtCom= 9.97D-01 WtEn= 2.64D-03
 Coeff-Com: -0.628D-02 0.125D-01 0.204D+00 0.789D+00
 Coeff-En:   0.000D+00 0.000D+00 0.000D+00 0.100D+01
 Coeff:     -0.626D-02 0.125D-01 0.204D+00 0.790D+00
 Gap=     0.293 Goal=   None    Shift=    0.000
 RMSDP=1.56D-05 MaxDP=2.04D-04 DE=-1.35D-04 OVMax= 5.07D-04

 Cycle   5  Pass 0  IDiag  1:
 E= -78.5115278797816     Delta-E=       -0.000002122220 Rises=F Damp=F
 DIIS: error= 1.83D-05 at cycle   5 NSaved=   5.
 NSaved= 5 IEnMin= 5 EnMin= -78.5115278797816     IErMin= 5 ErrMin= 1.83D-05
 ErrMax= 1.83D-05  0.00D+00 EMaxC= 1.00D-01 BMatC= 1.32D-08 BMatP= 2.33D-06
 IDIUse=1 WtCom= 1.00D+00 WtEn= 0.00D+00
 Coeff-Com:  0.327D-03-0.145D-02-0.778D-02 0.376D-01 0.971D+00
 Coeff:      0.327D-03-0.145D-02-0.778D-02 0.376D-01 0.971D+00
 Gap=     0.293 Goal=   None    Shift=    0.000
 RMSDP=1.78D-06 MaxDP=1.60D-05 DE=-2.12D-06 OVMax= 3.98D-05

 Initial convergence to 1.0D-05 achieved.  Increase integral accuracy.
 Cycle   6  Pass 1  IDiag  1:
 E= -78.5115281641999     Delta-E=       -0.000000284418 Rises=F Damp=F
 DIIS: error= 1.40D-06 at cycle   1 NSaved=   1.
 NSaved= 1 IEnMin= 1 EnMin= -78.5115281641999     IErMin= 1 ErrMin= 1.40D-06
 ErrMax= 1.40D-06  0.00D+00 EMaxC= 1.00D-01 BMatC= 6.70D-11 BMatP= 6.70D-11
 IDIUse=1 WtCom= 1.00D+00 WtEn= 0.00D+00
 Coeff-Com:  0.100D+01
 Coeff:      0.100D+01
 Gap=     0.293 Goal=   None    Shift=    0.000
 RMSDP=1.78D-06 MaxDP=1.60D-05 DE=-2.84D-07 OVMax= 4.14D-06

 Cycle   7  Pass 1  IDiag  1:
 E= -78.5115281642932     Delta-E=       -0.000000000093 Rises=F Damp=F
 DIIS: error= 1.53D-07 at cycle   2 NSaved=   2.
 NSaved= 2 IEnMin= 2 EnMin= -78.5115281642932     IErMin= 2 ErrMin= 1.53D-07
 ErrMax= 1.53D-07  0.00D+00 EMaxC= 1.00D-01 BMatC= 1.02D-12 BMatP= 6.70D-11
 IDIUse=1 WtCom= 1.00D+00 WtEn= 0.00D+00
 Coeff-Com: -0.177D-01 0.102D+01
 Coeff:     -0.177D-01 0.102D+01
 Gap=     0.293 Goal=   None    Shift=    0.000
 RMSDP=3.68D-08 MaxDP=7.28D-07 DE=-9.33D-11 OVMax= 7.49D-07

 Cycle   8  Pass 1  IDiag  1:
 E= -78.5115281642944     Delta-E=       -0.000000000001 Rises=F Damp=F
 DIIS: error= 1.07D-07 at cycle   3 NSaved=   3.
 NSaved= 3 IEnMin= 3 EnMin= -78.5115281642944     IErMin= 3 ErrMin= 1.07D-07
 ErrMax= 1.07D-07  0.00D+00 EMaxC= 1.00D-01 BMatC= 4.59D-13 BMatP= 1.02D-12
 IDIUse=1 WtCom= 1.00D+00 WtEn= 0.00D+00
 Coeff-Com: -0.214D-01 0.391D+00 0.630D+00
 Coeff:     -0.214D-01 0.391D+00 0.630D+00
 Gap=     0.293 Goal=   None    Shift=    0.000
 RMSDP=6.43D-09 MaxDP=1.04D-07 DE=-1.25D-12 OVMax= 2.48D-07

 SCF Done:  E(RPBE1PBE) =  -78.5115281643     A.U. after    8 cycles
            NFock=  8  Conv=0.64D-08     -V/T= 2.0059
 KE= 7.805169505080D+01 PE=-2.483591863144D+02 EE= 5.844595756966D+01
 Leave Link  502 at Tue Oct 25 22:28:14 2022, MaxMem=  1342177280 cpu:              10.0 elap:               1.1
 (Enter /home/lmod/software/Binaries/g16/B.01/l601.exe)
 Copying SCF densities to generalized density rwf, IOpCl= 0 IROHF=0.

 **********************************************************************

            Population analysis using the SCF Density.

 **********************************************************************

 Orbital symmetries:
       Occupied  (A) (A) (A) (A) (A) (A) (A) (A)
       Virtual   (A) (A) (A) (A) (A) (A) (A) (A) (A) (A) (A) (A)
                 (A) (A) (A) (A) (A) (A) (A) (A) (A) (A) (A) (A)
                 (A) (A) (A) (A) (A) (A) (A) (A) (A) (A) (A) (A)
                 (A) (A) (A) (A) (A) (A) (A) (A) (A) (A) (A) (A)
                 (A) (A) (A) (A) (A) (A) (A) (A) (A) (A) (A) (A)
                 (A) (A) (A) (A) (A) (A) (A) (A) (A) (A) (A) (A)
                 (A) (A) (A) (A) (A) (A)
 The electronic state is 1-A.
 Alpha  occ. eigenvalues --  -10.22358 -10.22263  -0.78560  -0.59329  -0.48922
 Alpha  occ. eigenvalues --   -0.42723  -0.36969  -0.28910
 Alpha virt. eigenvalues --    0.00421   0.07479   0.09948   0.10429   0.16278
 Alpha virt. eigenvalues --    0.20019   0.22406   0.22634   0.23097   0.28818
 Alpha virt. eigenvalues --    0.32393   0.35468   0.43126   0.46297   0.46807
 Alpha virt. eigenvalues --    0.50527   0.54569   0.57199   0.65313   0.72992
 Alpha virt. eigenvalues --    0.77787   0.81134   0.89969   0.94954   1.07158
 Alpha virt. eigenvalues --    1.07265   1.12103   1.24839   1.33230   1.43607
 Alpha virt. eigenvalues --    1.55064   1.55108   1.60262   1.63114   1.72332
 Alpha virt. eigenvalues --    1.74667   1.75378   1.79457   1.80820   1.82948
 Alpha virt. eigenvalues --    2.02676   2.22128   2.27444   2.32627   2.33155
 Alpha virt. eigenvalues --    2.40673   2.43858   2.52311   2.60036   2.61276
 Alpha virt. eigenvalues --    2.62092   2.76824   2.84678   2.94516   2.96418
 Alpha virt. eigenvalues --    3.02414   3.04534   3.09976   3.12086   3.14730
 Alpha virt. eigenvalues --    3.18211   3.29497   3.38429   3.39435   3.42475
 Alpha virt. eigenvalues --    3.51304   3.67126   3.67241   4.06115   4.09675
 Alpha virt. eigenvalues --    4.14197   4.35952   4.42836   4.58967   4.64470
 Alpha virt. eigenvalues --    4.94559  21.99040  22.61267
          Condensed to atoms (all electrons):
               1          2          3          4          5          6
     1  C    4.863070   0.651418   0.405250   0.405259  -0.034573  -0.034579
     2  C    0.651418   4.863070  -0.034574  -0.034578   0.405247   0.405262
     3  H    0.405250  -0.034574   0.537001  -0.031985  -0.010267   0.006652
     4  H    0.405259  -0.034578  -0.031985   0.536994   0.006652  -0.010265
     5  H   -0.034573   0.405247  -0.010267   0.006652   0.537005  -0.031985
     6  H   -0.034579   0.405262   0.006652  -0.010265  -0.031985   0.536990
 Mulliken charges:
               1
     1  C   -0.255845
     2  C   -0.255845
     3  H    0.127922
     4  H    0.127923
     5  H    0.127921
     6  H    0.127924
 Sum of Mulliken charges =   0.00000
 Mulliken charges with hydrogens summed into heavy atoms:
               1
     1  C    0.000000
     2  C   -0.000000
 Electronic spatial extent (au):  <R**2>=             82.5581
 Charge=              0.0000 electrons
 Dipole moment (field-independent basis, Debye):
    X=             -0.0000    Y=             -0.0000    Z=              0.0001  Tot=              0.0001
 Quadrupole moment (field-independent basis, Debye-Ang):
   XX=            -12.4666   YY=            -12.0416   ZZ=            -15.7155
   XY=             -0.0000   XZ=              0.0000   YZ=             -0.0000
 Traceless Quadrupole moment (field-independent basis, Debye-Ang):
   XX=              0.9413   YY=              1.3664   ZZ=             -2.3076
   XY=             -0.0000   XZ=              0.0000   YZ=             -0.0000
 Octapole moment (field-independent basis, Debye-Ang**2):
  XXX=             -0.0000  YYY=             -0.0000  ZZZ=              0.0002  XYY=              0.0000
  XXY=             -0.0002  XXZ=              0.0002  XZZ=             -0.0000  YZZ=             -0.0001
  YYZ=              0.0002  XYZ=              0.0000
 Hexadecapole moment (field-independent basis, Debye-Ang**3):
 XXXX=            -69.1793 YYYY=            -27.1177 ZZZZ=            -19.3002 XXXY=             -0.0000
 XXXZ=              0.0001 YYYX=             -0.0001 YYYZ=             -0.0000 ZZZX=              0.0000
 ZZZY=             -0.0000 XXYY=            -13.0833 XXZZ=            -15.5050 YYZZ=             -8.5382
 XXYZ=             -0.0000 YYXZ=              0.0000 ZZXY=             -0.0000
 N-N= 3.335000552961D+01 E-N=-2.483591932371D+02  KE= 7.805169505080D+01
 No NMR shielding tensors so no spin-rotation constants.
 Leave Link  601 at Tue Oct 25 22:28:14 2022, MaxMem=  1342177280 cpu:               1.2 elap:               0.2
 (Enter /home/lmod/software/Binaries/g16/B.01/l612.exe)
 Running external command "gaunbo6 R"
         input file       "/home/oyanez/Gaussian/coms/Gau-134860.EIn"
         output file      "/home/oyanez/Gaussian/coms/Gau-134860.EOu"
         message file     "/home/oyanez/Gaussian/coms/Gau-134860.EMs"
         fchk file        "/home/oyanez/Gaussian/coms/Gau-134860.EFC"
         mat. el file     "/home/oyanez/Gaussian/coms/Gau-134860.EUF"
 Warning:  Reading an uninitialized block!
 Want step      1 but only have      0 steps.

 Writing WrtUnf unformatted file "/home/oyanez/Gaussian/coms/Gau-134860.EUF"
 Gaussian matrix elements                                         Version   2 NLab=11 Len12L=8 Len4L=8
 Write SHELL TO ATOM MAP                   from file     0 offset           0 length                  38 to matrix element file.
 Write SHELL TYPES                         from file     0 offset           0 length                  38 to matrix element file.
 Write NUMBER OF PRIMITIVES PER SHELL      from file     0 offset           0 length                  38 to matrix element file.
 Write PRIMITIVE EXPONENTS                 from file     0 offset           0 length                  64 to matrix element file.
 Write CONTRACTION COEFFICIENTS            from file     0 offset           0 length                  64 to matrix element file.
 Write P(S=P) CONTRACTION COEFFICIENTS     from file     0 offset           0 length                  64 to matrix element file.
 Write COORDINATES OF EACH SHELL           from file     0 offset           0 length                 114 to matrix element file.
 Write BONDS PER ATOM                      from file     0 offset           0 length                   6 to matrix element file.
 Write BONDED ATOMS                        from file     0 offset           0 length                  10 to matrix element file.
 Write BOND TYPES                          from file     0 offset           0 length                  10 to matrix element file.
 Write GAUSSIAN SCALARS                    from file   501 offset           0 to matrix element file.
 Write INTEGER ISO                         from file     0 offset           0 length                   6 to matrix element file.
 Write INTEGER SPIN                        from file     0 offset           0 length                   6 to matrix element file.
 Write REAL ZEFFECTIVE                     from file     0 offset           0 length                   6 to matrix element file.
 Write REAL GFACTOR                        from file     0 offset           0 length                   6 to matrix element file.
 Write REAL ZNUCLEAR                       from file     0 offset           0 length                   6 to matrix element file.
 Write MULLIKEN CHARGES                    from file     0 offset           0 length                   6 to matrix element file.
 Write NUCLEAR GRADIENT                    from file 10584 offset           0 length                  18 to matrix element file.
 Array NUCLEAR FORCE CONSTANTS              on  file 10585 does not exist.
 Write ELECTRIC DIPOLE MOMENT              from file     0 offset           0 length                   3 to matrix element file.
 Write NON-ADIABATIC COUPLING              from file 10810 offset           0 length                  18 to matrix element file.
 Write OVERLAP                             from file 10514 offset           0 length                3741 to matrix element file.
 Write CORE HAMILTONIAN ALPHA              from file 10515 offset           0 length                3741 to matrix element file.
 Write CORE HAMILTONIAN BETA               from file 10515 offset        3741 length                3741 to matrix element file.
 Write KINETIC ENERGY                      from file 10516 offset           0 length                3741 to matrix element file.
 Write ORTHOGONAL BASIS                    from file 10685 offset           0 length                7396 to matrix element file.
 Write DIPOLE INTEGRALS                    from file 10518 offset           0 length               11223 to matrix element file.
 Array DIP VEL INTEGRALS                    on  file 10572 does not exist.
 Array R X DEL INTEGRALS                    on  file 10572 does not exist.
 Write ALPHA ORBITAL ENERGIES              from file     0 offset           0 length                  86 to matrix element file.
 Write ALPHA MO COEFFICIENTS               from file 10524 offset           0 length                7396 to matrix element file.
 Write ALPHA DENSITY MATRIX                from file     0 offset           0 length                3741 to matrix element file.
 Write ALPHA SCF DENSITY MATRIX            from file 10528 offset           0 length                3741 to matrix element file.
 Write ALPHA FOCK MATRIX                   from file 10536 offset           0 length                3741 to matrix element file.
 Write ALPHA SCF DENSITY                   from file     0 offset           0 length                3741 to matrix element file.
 No 2e integrals to process.
 Perform NBO analysis...executing G16NBO...

 *********************************** NBO 7.0 ***********************************
             N A T U R A L   A T O M I C   O R B I T A L   A N D
          N A T U R A L   B O N D   O R B I T A L   A N A L Y S I S
 *********************** Kerry Wrighton-Araneda (I102012) **********************
  (c) Copyright 1996-2020 Board of Regents of the University of Wisconsin System
      on behalf of the Theoretical Chemistry Institute.  All rights reserved.

          Cite this program [NBO 7.0.9 (21-May-2020)] as:

          NBO 7.0.  E. D. Glendening, J. K. Badenhoop, A. E. Reed,
          J. E. Carpenter, J. A. Bohmann, C. M. Morales, P. Karafiloglou,
          C. R. Landis, and F. Weinhold, Theoretical Chemistry Institute,
          University of Wisconsin, Madison, WI (2018)

       /BNDIDX / : Print bond indices based on the NAO density matrix

 Filename set to /home/oyanez/Gaussian/coms/Gau-134860

 Job title: 1_SiLi-0000 E=0.000000


 NATURAL POPULATIONS:  Natural atomic orbital occupancies

  NAO Atom No lang   Type(AO)    Occupancy      Energy
 -------------------------------------------------------
   1    C  1  s      Cor( 1s)     1.99999     -10.22303
   2    C  1  s      Val( 2s)     1.08671      -0.19556
   3    C  1  s      Ryd( 3s)     0.00271       1.00934
   4    C  1  s      Ryd( 4s)     0.00004       4.40494
   5    C  1  s      Ryd( 5s)     0.00000      18.14788
   6    C  1  px     Val( 2p)     1.11536      -0.05133
   7    C  1  px     Ryd( 3p)     0.00279       0.65022
   8    C  1  px     Ryd( 4p)     0.00011       2.29575
   9    C  1  py     Val( 2p)     1.17959      -0.05153
  10    C  1  py     Ryd( 3p)     0.00262       0.96632
  11    C  1  py     Ryd( 4p)     0.00015       1.55943
  12    C  1  pz     Val( 2p)     0.99734      -0.12110
  13    C  1  pz     Ryd( 3p)     0.00146       0.58391
  14    C  1  pz     Ryd( 4p)     0.00018       1.29250
  15    C  1  dxy    Ryd( 3d)     0.00089       2.18710
  16    C  1  dxy    Ryd( 4d)     0.00013       3.00221
  17    C  1  dxz    Ryd( 3d)     0.00046       1.62389
  18    C  1  dxz    Ryd( 4d)     0.00002       2.69954
  19    C  1  dyz    Ryd( 3d)     0.00000       1.24112
  20    C  1  dyz    Ryd( 4d)     0.00000       2.51585
  21    C  1  dx2y2  Ryd( 3d)     0.00269       2.01097
  22    C  1  dx2y2  Ryd( 4d)     0.00004       2.99164
  23    C  1  dz2    Ryd( 3d)     0.00134       1.73433
  24    C  1  dz2    Ryd( 4d)     0.00000       2.88674
  25    C  1  f(0)   Ryd( 4f)     0.00031       3.05819
  26    C  1  f(c1)  Ryd( 4f)     0.00037       3.32170
  27    C  1  f(s1)  Ryd( 4f)     0.00041       3.16622
  28    C  1  f(c2)  Ryd( 4f)     0.00001       3.13609
  29    C  1  f(s2)  Ryd( 4f)     0.00000       3.10541
  30    C  1  f(c3)  Ryd( 4f)     0.00065       3.92483
  31    C  1  f(s3)  Ryd( 4f)     0.00012       3.44153

  32    C  2  s      Cor( 1s)     1.99999     -10.22303
  33    C  2  s      Val( 2s)     1.08671      -0.19556
  34    C  2  s      Ryd( 3s)     0.00271       1.00934
  35    C  2  s      Ryd( 4s)     0.00004       4.40494
  36    C  2  s      Ryd( 5s)     0.00000      18.14788
  37    C  2  px     Val( 2p)     1.11536      -0.05133
  38    C  2  px     Ryd( 3p)     0.00279       0.65022
  39    C  2  px     Ryd( 4p)     0.00011       2.29575
  40    C  2  py     Val( 2p)     1.17959      -0.05153
  41    C  2  py     Ryd( 3p)     0.00262       0.96632
  42    C  2  py     Ryd( 4p)     0.00015       1.55943
  43    C  2  pz     Val( 2p)     0.99734      -0.12110
  44    C  2  pz     Ryd( 3p)     0.00146       0.58391
  45    C  2  pz     Ryd( 4p)     0.00018       1.29250
  46    C  2  dxy    Ryd( 3d)     0.00089       2.18710
  47    C  2  dxy    Ryd( 4d)     0.00013       3.00221
  48    C  2  dxz    Ryd( 3d)     0.00046       1.62389
  49    C  2  dxz    Ryd( 4d)     0.00002       2.69954
  50    C  2  dyz    Ryd( 3d)     0.00000       1.24112
  51    C  2  dyz    Ryd( 4d)     0.00000       2.51585
  52    C  2  dx2y2  Ryd( 3d)     0.00269       2.01097
  53    C  2  dx2y2  Ryd( 4d)     0.00004       2.99164
  54    C  2  dz2    Ryd( 3d)     0.00134       1.73433
  55    C  2  dz2    Ryd( 4d)     0.00000       2.88674
  56    C  2  f(0)   Ryd( 4f)     0.00031       3.05819
  57    C  2  f(c1)  Ryd( 4f)     0.00037       3.32170
  58    C  2  f(s1)  Ryd( 4f)     0.00041       3.16622
  59    C  2  f(c2)  Ryd( 4f)     0.00001       3.13609
  60    C  2  f(s2)  Ryd( 4f)     0.00000       3.10541
  61    C  2  f(c3)  Ryd( 4f)     0.00065       3.92483
  62    C  2  f(s3)  Ryd( 4f)     0.00012       3.44153

  63    H  3  s      Val( 1s)     0.80017       0.04338
  64    H  3  s      Ryd( 2s)     0.00076       0.60943
  65    H  3  s      Ryd( 3s)     0.00007       2.02661
  66    H  3  px     Ryd( 2p)     0.00016       2.43606
  67    H  3  py     Ryd( 2p)     0.00047       2.60799
  68    H  3  pz     Ryd( 2p)     0.00011       2.05055

  69    H  4  s      Val( 1s)     0.80017       0.04341
  70    H  4  s      Ryd( 2s)     0.00076       0.60945
  71    H  4  s      Ryd( 3s)     0.00007       2.02657
  72    H  4  px     Ryd( 2p)     0.00016       2.43608
  73    H  4  py     Ryd( 2p)     0.00047       2.60795
  74    H  4  pz     Ryd( 2p)     0.00011       2.05056

  75    H  5  s      Val( 1s)     0.80017       0.04337
  76    H  5  s      Ryd( 2s)     0.00076       0.60943
  77    H  5  s      Ryd( 3s)     0.00007       2.02662
  78    H  5  px     Ryd( 2p)     0.00016       2.43606
  79    H  5  py     Ryd( 2p)     0.00047       2.60799
  80    H  5  pz     Ryd( 2p)     0.00011       2.05054

  81    H  6  s      Val( 1s)     0.80017       0.04343
  82    H  6  s      Ryd( 2s)     0.00076       0.60946
  83    H  6  s      Ryd( 3s)     0.00007       2.02656
  84    H  6  px     Ryd( 2p)     0.00016       2.43608
  85    H  6  py     Ryd( 2p)     0.00047       2.60795
  86    H  6  pz     Ryd( 2p)     0.00011       2.05057


 Summary of Natural Population Analysis:

                                     Natural Population
             Natural    ---------------------------------------------
  Atom No    Charge        Core      Valence    Rydberg      Total
 --------------------------------------------------------------------
    C  1   -0.39650      1.99999     4.37900    0.01751     6.39650
    C  2   -0.39650      1.99999     4.37900    0.01751     6.39650
    H  3    0.19825      0.00000     0.80017    0.00158     0.80175
    H  4    0.19825      0.00000     0.80017    0.00158     0.80175
    H  5    0.19825      0.00000     0.80017    0.00158     0.80175
    H  6    0.19825      0.00000     0.80017    0.00158     0.80175
 ====================================================================
 * Total * -0.00000      3.99998    11.95869    0.04133    16.00000

                                 Natural Population
 ---------------------------------------------------------
   Core                       3.99998 ( 99.9996% of    4)
   Valence                   11.95869 ( 99.6557% of   12)
   Natural Minimal Basis     15.95867 ( 99.7417% of   16)
   Natural Rydberg Basis      0.04133 (  0.2583% of   16)
 ---------------------------------------------------------

    Atom No         Natural Electron Configuration
 ----------------------------------------------------------------------------
      C  1      [core]2s( 1.09)2p( 3.29)3p( 0.01)3d( 0.01)
      C  2      [core]2s( 1.09)2p( 3.29)3p( 0.01)3d( 0.01)
      H  3            1s( 0.80)
      H  4            1s( 0.80)
      H  5            1s( 0.80)
      H  6            1s( 0.80)


 Wiberg bond index matrix in the NAO basis:

     Atom    1       2       3       4       5       6
     ---- ------  ------  ------  ------  ------  ------
   1.  C  0.0000  2.0465  0.9367  0.9367  0.0042  0.0042
   2.  C  2.0465  0.0000  0.0042  0.0042  0.9367  0.9367
   3.  H  0.9367  0.0042  0.0000  0.0003  0.0037  0.0173
   4.  H  0.9367  0.0042  0.0003  0.0000  0.0173  0.0037
   5.  H  0.0042  0.9367  0.0037  0.0173  0.0000  0.0003
   6.  H  0.0042  0.9367  0.0173  0.0037  0.0003  0.0000


 Wiberg bond index, Totals by atom:

     Atom    1
     ---- ------
   1.  C  3.9283
   2.  C  3.9283
   3.  H  0.9623
   4.  H  0.9623
   5.  H  0.9623
   6.  H  0.9623


 NBI: Natural Binding Index (NCU strength parameters)

     Atom    1       2       3       4       5       6
     ---- ------  ------  ------  ------  ------  ------
   1.  C  0.0000  1.4306  0.9678  0.9678  0.0651  0.0651
   2.  C  1.4306  0.0000  0.0651  0.0651  0.9678  0.9678
   3.  H  0.9678  0.0651  0.0000  0.0184  0.0611  0.1316
   4.  H  0.9678  0.0651  0.0184  0.0000  0.1316  0.0611
   5.  H  0.0651  0.9678  0.0611  0.1316  0.0000  0.0184
   6.  H  0.0651  0.9678  0.1316  0.0611  0.0184  0.0000


 NATURAL BOND ORBITAL ANALYSIS:

                            Occupancies       Lewis Structure    Low   High
         Max    Occ     -------------------  -----------------   occ   occ
  Cycle  Ctr   Thresh    Lewis   non-Lewis     CR  BD  nC  LP    (L)   (NL)
 ============================================================================
    1     2     1.90    15.94220   0.05780      2   6   0   0     0      0
 ----------------------------------------------------------------------------

 Structure accepted: No low occupancy Lewis orbitals

 -------------------------------------------------------
   Core                      3.99998 (100.000% of   4)
   Valence Lewis            11.94221 ( 99.518% of  12)
  ==================      =============================
   Total Lewis              15.94220 ( 99.639% of  16)
  -----------------------------------------------------
   Valence non-Lewis         0.04494 (  0.281% of  16)
   Rydberg non-Lewis         0.01287 (  0.080% of  16)
  ==================      =============================
   Total non-Lewis           0.05780 (  0.361% of  16)
 -------------------------------------------------------


     (Occupancy)   Bond orbital / Coefficients / Hybrids
 ------------------ Lewis ------------------------------------------------------
   1. (1.99999) CR ( 1) C  1            s(100.00%)
                                         1.0000  0.0000  0.0000  0.0000  0.0000
                                         0.0000  0.0000  0.0000  0.0000  0.0000
                                         0.0000  0.0000  0.0000  0.0000  0.0000
                                         0.0000  0.0000  0.0000  0.0000  0.0000
                                         0.0000  0.0000  0.0000  0.0000  0.0000
                                         0.0000  0.0000  0.0000  0.0000  0.0000
                                         0.0000
   2. (1.99999) CR ( 1) C  2            s(100.00%)
                                         1.0000  0.0000  0.0000  0.0000  0.0000
                                         0.0000  0.0000  0.0000  0.0000  0.0000
                                         0.0000  0.0000  0.0000  0.0000  0.0000
                                         0.0000  0.0000  0.0000  0.0000  0.0000
                                         0.0000  0.0000  0.0000  0.0000  0.0000
                                         0.0000  0.0000  0.0000  0.0000  0.0000
                                         0.0000
   3. (1.99957) BD ( 1) C  1- C  2
               ( 50.00%)   0.7071* C  1 s(  0.00%)p 1.00( 99.92%)d 0.00(  0.05%)
                                                  f 0.00(  0.03%)
                                         0.0000  0.0058  0.0003 -0.0000 -0.0000
                                         0.0071 -0.0004 -0.0000 -0.0000  0.0000
                                         0.0000  0.9987  0.0382 -0.0135 -0.0000
                                         0.0000  0.0213  0.0050 -0.0000  0.0000
                                         0.0004 -0.0000 -0.0003  0.0000 -0.0177
                                        -0.0001 -0.0000  0.0033  0.0000  0.0002
                                        -0.0000
               ( 50.00%)   0.7071* C  2 s(  0.00%)p 1.00( 99.92%)d 0.00(  0.05%)
                                                  f 0.00(  0.03%)
                                         0.0000  0.0058  0.0003 -0.0000 -0.0000
                                        -0.0071  0.0004  0.0000  0.0000  0.0000
                                        -0.0000  0.9987  0.0382 -0.0135  0.0000
                                        -0.0000 -0.0213 -0.0050 -0.0000  0.0000
                                         0.0004 -0.0000 -0.0003  0.0000 -0.0177
                                         0.0001 -0.0000  0.0033 -0.0000 -0.0002
                                         0.0000
   4. (1.99807) BD ( 2) C  1- C  2
               ( 50.00%)   0.7071* C  1 s( 40.07%)p 1.49( 59.65%)d 0.01(  0.23%)
                                                  f 0.00(  0.06%)
                                         0.0000  0.6320  0.0362 -0.0025  0.0000
                                         0.7710 -0.0435 -0.0044 -0.0000  0.0000
                                         0.0000 -0.0092 -0.0003  0.0001 -0.0000
                                         0.0000 -0.0002 -0.0000  0.0000 -0.0000
                                         0.0384 -0.0012 -0.0280  0.0012  0.0002
                                        -0.0151 -0.0000 -0.0000 -0.0000  0.0183
                                        -0.0000
               ( 50.00%)   0.7071* C  2 s( 40.07%)p 1.49( 59.65%)d 0.01(  0.23%)
                                                  f 0.00(  0.06%)
                                         0.0000  0.6320  0.0362 -0.0025  0.0000
                                        -0.7710  0.0435  0.0044  0.0000  0.0000
                                        -0.0000 -0.0092 -0.0004  0.0001  0.0000
                                        -0.0000  0.0002  0.0000  0.0000 -0.0000
                                         0.0384 -0.0012 -0.0280  0.0012  0.0002
                                         0.0151 -0.0000 -0.0000  0.0000 -0.0183
                                         0.0000
   5. (1.98615) BD ( 1) C  1- H  3
               ( 60.01%)   0.7747* C  1 s( 29.95%)p 2.33( 69.90%)d 0.00(  0.11%)
                                                  f 0.00(  0.04%)
                                         0.0000  0.5470 -0.0168  0.0012 -0.0000
                                        -0.4466  0.0103 -0.0033  0.7066  0.0067
                                         0.0079  0.0000 -0.0000  0.0000 -0.0195
                                        -0.0018 -0.0000  0.0000  0.0000 -0.0000
                                        -0.0215  0.0017 -0.0158 -0.0001 -0.0000
                                         0.0073 -0.0131 -0.0000 -0.0000  0.0117
                                         0.0055
               ( 39.99%)   0.6324* H  3 s( 99.93%)p 0.00(  0.07%)
                                         0.9996 -0.0020  0.0002  0.0128 -0.0237
                                        -0.0000
   6. (1.98614) BD ( 1) C  1- H  4
               ( 60.01%)   0.7747* C  1 s( 29.95%)p 2.33( 69.90%)d 0.00(  0.11%)
                                                  f 0.00(  0.04%)
                                         0.0000  0.5470 -0.0168  0.0012 -0.0000
                                        -0.4466  0.0103 -0.0033 -0.7066 -0.0067
                                        -0.0079  0.0000 -0.0000  0.0000  0.0195
                                         0.0018 -0.0000  0.0000 -0.0000  0.0000
                                        -0.0215  0.0017 -0.0158 -0.0001 -0.0000
                                         0.0073  0.0131 -0.0000  0.0000  0.0117
                                        -0.0055
               ( 39.99%)   0.6324* H  4 s( 99.93%)p 0.00(  0.07%)
                                         0.9996 -0.0020  0.0002  0.0128  0.0237
                                        -0.0000
   7. (1.98614) BD ( 1) C  2- H  5
               ( 60.01%)   0.7747* C  2 s( 29.95%)p 2.33( 69.90%)d 0.00(  0.11%)
                                                  f 0.00(  0.04%)
                                         0.0000  0.5470 -0.0168  0.0012 -0.0000
                                         0.4466 -0.0103  0.0033  0.7066  0.0067
                                         0.0079  0.0000 -0.0000  0.0000  0.0195
                                         0.0018  0.0000 -0.0000  0.0000 -0.0000
                                        -0.0215  0.0017 -0.0158 -0.0001 -0.0000
                                        -0.0073 -0.0131 -0.0000  0.0000 -0.0117
                                         0.0055
               ( 39.99%)   0.6324* H  5 s( 99.93%)p 0.00(  0.07%)
                                         0.9996 -0.0020  0.0002 -0.0128 -0.0237
                                        -0.0000
   8. (1.98615) BD ( 1) C  2- H  6
               ( 60.01%)   0.7747* C  2 s( 29.95%)p 2.33( 69.90%)d 0.00(  0.11%)
                                                  f 0.00(  0.04%)
                                         0.0000  0.5470 -0.0168  0.0012 -0.0000
                                         0.4466 -0.0103  0.0033 -0.7066 -0.0067
                                        -0.0079  0.0000 -0.0000  0.0000 -0.0195
                                        -0.0018  0.0000 -0.0000 -0.0000  0.0000
                                        -0.0215  0.0017 -0.0158 -0.0001 -0.0000
                                        -0.0073  0.0131 -0.0000 -0.0000 -0.0117
                                        -0.0055
               ( 39.99%)   0.6324* H  6 s( 99.93%)p 0.00(  0.07%)
                                         0.9996 -0.0020  0.0002 -0.0128  0.0237
                                        -0.0000
 ---------------- non-Lewis ----------------------------------------------------
   9. (0.00000) BD*( 1) C  1- C  2
               ( 50.00%)   0.7071* C  1 s(  0.00%)p 1.00( 99.92%)d 0.00(  0.05%)
                                                  f 0.00(  0.03%)
               ( 50.00%)  -0.7071* C  2 s(  0.00%)p 1.00( 99.92%)d 0.00(  0.05%)
                                                  f 0.00(  0.03%)
  10. (0.00132) BD*( 2) C  1- C  2
               ( 50.00%)   0.7071* C  1 s( 40.07%)p 1.49( 59.65%)d 0.01(  0.23%)
                                                  f 0.00(  0.06%)
                                         0.0000  0.6320  0.0362 -0.0025  0.0000
                                         0.7710 -0.0435 -0.0044 -0.0000  0.0000
                                         0.0000 -0.0092 -0.0003  0.0001 -0.0000
                                         0.0000 -0.0002 -0.0000  0.0000 -0.0000
                                         0.0384 -0.0012 -0.0280  0.0012  0.0002
                                        -0.0151 -0.0000 -0.0000 -0.0000  0.0183
                                        -0.0000
               ( 50.00%)  -0.7071* C  2 s( 40.07%)p 1.49( 59.65%)d 0.01(  0.23%)
                                                  f 0.00(  0.06%)
                                         0.0000  0.6320  0.0362 -0.0025  0.0000
                                        -0.7710  0.0435  0.0044  0.0000  0.0000
                                        -0.0000 -0.0092 -0.0004  0.0001  0.0000
                                        -0.0000  0.0002  0.0000  0.0000 -0.0000
                                         0.0384 -0.0012 -0.0280  0.0012  0.0002
                                         0.0151 -0.0000 -0.0000  0.0000 -0.0183
                                         0.0000
  11. (0.01090) BD*( 1) C  1- H  3
               ( 39.99%)   0.6324* C  1 s( 29.95%)p 2.33( 69.90%)d 0.00(  0.11%)
                                                  f 0.00(  0.04%)
                                         0.0000 -0.5470  0.0168 -0.0012  0.0000
                                         0.4466 -0.0103  0.0033 -0.7066 -0.0067
                                        -0.0079 -0.0000  0.0000 -0.0000  0.0195
                                         0.0018  0.0000 -0.0000 -0.0000  0.0000
                                         0.0215 -0.0017  0.0158  0.0001  0.0000
                                        -0.0073  0.0131  0.0000  0.0000 -0.0117
                                        -0.0055
               ( 60.01%)  -0.7747* H  3 s( 99.93%)p 0.00(  0.07%)
                                        -0.9996  0.0020 -0.0002 -0.0128  0.0237
                                         0.0000
  12. (0.01090) BD*( 1) C  1- H  4
               ( 39.99%)   0.6324* C  1 s( 29.95%)p 2.33( 69.90%)d 0.00(  0.11%)
                                                  f 0.00(  0.04%)
                                         0.0000 -0.5470  0.0168 -0.0012  0.0000
                                         0.4466 -0.0103  0.0033  0.7066  0.0067
                                         0.0079 -0.0000  0.0000 -0.0000 -0.0195
                                        -0.0018  0.0000 -0.0000  0.0000 -0.0000
                                         0.0215 -0.0017  0.0158  0.0001  0.0000
                                        -0.0073 -0.0131  0.0000 -0.0000 -0.0117
                                         0.0055
               ( 60.01%)  -0.7747* H  4 s( 99.93%)p 0.00(  0.07%)
                                        -0.9996  0.0020 -0.0002 -0.0128 -0.0237
                                         0.0000
  13. (0.01091) BD*( 1) C  2- H  5
               ( 39.99%)   0.6324* C  2 s( 29.95%)p 2.33( 69.90%)d 0.00(  0.11%)
                                                  f 0.00(  0.04%)
                                         0.0000 -0.5470  0.0168 -0.0012  0.0000
                                        -0.4466  0.0103 -0.0033 -0.7066 -0.0067
                                        -0.0079 -0.0000  0.0000 -0.0000 -0.0195
                                        -0.0018 -0.0000  0.0000 -0.0000  0.0000
                                         0.0215 -0.0017  0.0158  0.0001  0.0000
                                         0.0073  0.0131  0.0000 -0.0000  0.0117
                                        -0.0055
               ( 60.01%)  -0.7747* H  5 s( 99.93%)p 0.00(  0.07%)
                                        -0.9996  0.0020 -0.0002  0.0128  0.0237
                                         0.0000
  14. (0.01090) BD*( 1) C  2- H  6
               ( 39.99%)   0.6324* C  2 s( 29.95%)p 2.33( 69.90%)d 0.00(  0.11%)
                                                  f 0.00(  0.04%)
                                         0.0000 -0.5470  0.0168 -0.0012  0.0000
                                        -0.4466  0.0103 -0.0033  0.7066  0.0067
                                         0.0079 -0.0000  0.0000 -0.0000  0.0195
                                         0.0018 -0.0000  0.0000  0.0000 -0.0000
                                         0.0215 -0.0017  0.0158  0.0001  0.0000
                                         0.0073 -0.0131  0.0000  0.0000  0.0117
                                         0.0055
               ( 60.01%)  -0.7747* H  6 s( 99.93%)p 0.00(  0.07%)
                                        -0.9996  0.0020 -0.0002  0.0128 -0.0237
                                         0.0000
  15. (0.00281) RY ( 1) C  1            s(  0.00%)p 1.00( 92.92%)d 0.05(  4.66%)
                                                  f 0.03(  2.42%)
                                         0.0000 -0.0000 -0.0000 -0.0000 -0.0000
                                         0.0000  0.0000  0.0000 -0.0135  0.9625
                                         0.0512  0.0000 -0.0000 -0.0000 -0.0522
                                        -0.2096 -0.0000  0.0000 -0.0000  0.0000
                                         0.0000 -0.0000 -0.0000  0.0000  0.0000
                                        -0.0000 -0.0398 -0.0000 -0.0000  0.0000
                                         0.1504
  16. (0.00162) RY ( 2) C  1            s( 49.08%)p 0.99( 48.73%)d 0.04(  2.07%)
                                                  f 0.00(  0.11%)
                                         0.0000 -0.0156  0.6873  0.1351 -0.0000
                                        -0.0562 -0.6644 -0.2066 -0.0000  0.0000
                                        -0.0000 -0.0000  0.0001 -0.0000 -0.0000
                                        -0.0000  0.0000 -0.0000 -0.0000  0.0000
                                        -0.0414  0.1372  0.0066 -0.0112 -0.0000
                                        -0.0295 -0.0000  0.0000 -0.0000  0.0165
                                        -0.0000
  17. (0.00000) RY ( 3) C  1            s( 18.99%)p 0.98( 18.70%)d 2.45( 46.49%)
                                                  f 0.83( 15.82%)
  18. (0.00000) RY ( 4) C  1            s( 10.68%)p 1.57( 16.72%)d 5.97( 63.79%)
                                                  f 0.83(  8.81%)
  19. (0.00000) RY ( 5) C  1            s( 65.09%)p 0.25( 16.26%)d 0.20( 13.24%)
                                                  f 0.08(  5.40%)
  20. (0.00000) RY ( 6) C  1            s(  6.14%)p14.06( 86.30%)d 0.99(  6.08%)
                                                  f 0.24(  1.48%)
  21. (0.00000) RY ( 7) C  1            s(  7.84%)p 7.29( 57.15%)d 4.09( 32.03%)
                                                  f 0.38(  2.99%)
  22. (0.00000) RY ( 8) C  1            s( 19.00%)p 0.49(  9.23%)d 3.32( 62.99%)
                                                  f 0.46(  8.78%)
  23. (0.00000) RY ( 9) C  1            s( 12.19%)p 1.01( 12.31%)d 5.11( 62.27%)
                                                  f 1.09( 13.24%)
  24. (0.00000) RY (10) C  1            s( 21.74%)p 1.14( 24.74%)d 2.13( 46.34%)
                                                  f 0.33(  7.18%)
  25. (0.00000) RY (11) C  1            s( 21.66%)p 0.05(  1.13%)d 0.81( 17.60%)
                                                  f 2.75( 59.61%)
  26. (0.00000) RY (12) C  1            s( 28.02%)p 0.18(  4.94%)d 1.48( 41.56%)
                                                  f 0.91( 25.48%)
  27. (0.00000) RY (13) C  1            s(  9.42%)p 0.39(  3.66%)d 5.66( 53.30%)
                                                  f 3.57( 33.62%)
  28. (0.00000) RY (14) C  1            s(  3.70%)p 1.07(  3.95%)d10.56( 39.04%)
                                                  f14.42( 53.31%)
  29. (0.00000) RY (15) C  1            s(  0.00%)p 1.00( 20.98%)d 2.98( 62.53%)
                                                  f 0.79( 16.50%)
  30. (0.00000) RY (16) C  1            s( 10.38%)p 0.27(  2.79%)d 5.99( 62.17%)
                                                  f 2.38( 24.66%)
  31. (0.00000) RY (17) C  1            s(  2.54%)p 0.23(  0.58%)d 2.29(  5.80%)
                                                  f35.90( 91.07%)
  32. (0.00000) RY (18) C  1            s(  0.00%)p 1.00( 84.03%)d 0.08(  6.80%)
                                                  f 0.11(  9.17%)
  33. (0.00000) RY (19) C  1            s( 13.58%)p 0.03(  0.45%)d 2.95( 40.10%)
                                                  f 3.38( 45.87%)
  34. (0.00000) RY (20) C  1            s(  0.00%)p 1.00( 10.35%)d 7.51( 77.74%)
                                                  f 1.15( 11.91%)
  35. (0.00000) RY (21) C  1            s(  0.00%)p 1.00(  0.10%)d99.99( 14.55%)
                                                  f99.99( 85.35%)
  36. (0.00000) RY (22) C  1            s(  0.00%)p 1.00( 26.43%)d 0.78( 20.56%)
                                                  f 2.01( 53.02%)
  37. (0.00000) RY (23) C  1            s(  0.00%)p 1.00( 19.61%)d 0.58( 11.35%)
                                                  f 3.52( 69.03%)
  38. (0.00000) RY (24) C  1            s(  0.00%)p 1.00(  0.31%)d99.99( 96.84%)
                                                  f 9.23(  2.85%)
  39. (0.00000) RY (25) C  1            s(  0.00%)p 1.00( 38.13%)d 0.29( 10.93%)
                                                  f 1.34( 50.93%)
  40. (0.00000) RY (26) C  1            s(  0.00%)p 1.00(  0.13%)d99.99( 98.66%)
                                                  f 9.06(  1.21%)
  41. (0.00281) RY ( 1) C  2            s(  0.00%)p 1.00( 92.92%)d 0.05(  4.66%)
                                                  f 0.03(  2.42%)
                                         0.0000 -0.0000 -0.0000  0.0000 -0.0000
                                        -0.0000  0.0000  0.0000 -0.0135  0.9625
                                         0.0512 -0.0000 -0.0000  0.0000  0.0522
                                         0.2096  0.0000 -0.0000 -0.0000  0.0000
                                         0.0000 -0.0000 -0.0000  0.0000 -0.0000
                                        -0.0000 -0.0398 -0.0000  0.0000 -0.0000
                                         0.1504
  42. (0.00162) RY ( 2) C  2            s( 49.08%)p 0.99( 48.73%)d 0.04(  2.07%)
                                                  f 0.00(  0.11%)
                                         0.0000 -0.0156  0.6873  0.1351 -0.0000
                                         0.0562  0.6644  0.2066 -0.0000 -0.0000
                                        -0.0000 -0.0000  0.0000 -0.0000  0.0000
                                        -0.0000 -0.0000  0.0000  0.0000 -0.0000
                                        -0.0414  0.1372  0.0066 -0.0112 -0.0000
                                         0.0295 -0.0000  0.0000  0.0000 -0.0165
                                        -0.0000
  43. (0.00000) RY ( 3) C  2            s( 18.99%)p 0.98( 18.70%)d 2.45( 46.49%)
                                                  f 0.83( 15.82%)
  44. (0.00000) RY ( 4) C  2            s( 10.68%)p 1.57( 16.72%)d 5.97( 63.79%)
                                                  f 0.83(  8.81%)
  45. (0.00000) RY ( 5) C  2            s( 72.43%)p 0.09(  6.76%)d 0.16( 11.37%)
                                                  f 0.13(  9.45%)
  46. (0.00000) RY ( 6) C  2            s( 30.48%)p 0.54( 16.58%)d 1.61( 49.00%)
                                                  f 0.13(  3.94%)
  47. (0.00000) RY ( 7) C  2            s( 12.43%)p 3.51( 43.66%)d 2.61( 32.39%)
                                                  f 0.93( 11.52%)
  48. (0.00000) RY ( 8) C  2            s(  0.64%)p99.99( 91.17%)d11.73(  7.54%)
                                                  f 1.00(  0.64%)
  49. (0.00000) RY ( 9) C  2            s( 14.16%)p 1.83( 25.88%)d 3.87( 54.74%)
                                                  f 0.37(  5.23%)
  50. (0.00000) RY (10) C  2            s( 23.17%)p 0.82( 19.08%)d 2.12( 49.06%)
                                                  f 0.38(  8.70%)
  51. (0.00000) RY (11) C  2            s(  2.48%)p 1.44(  3.56%)d 6.94( 17.17%)
                                                  f31.02( 76.79%)
  52. (0.00000) RY (12) C  2            s(  0.51%)p 4.62(  2.35%)d92.13( 46.82%)
                                                  f99.05( 50.33%)
  53. (0.00000) RY (13) C  2            s( 32.91%)p 0.11(  3.48%)d 1.59( 52.48%)
                                                  f 0.34( 11.14%)
  54. (0.00000) RY (14) C  2            s( 24.03%)p 0.05(  1.19%)d 1.32( 31.70%)
                                                  f 1.79( 43.09%)
  55. (0.00000) RY (15) C  2            s(  0.40%)p13.97(  5.63%)d99.99( 51.89%)
                                                  f99.99( 42.08%)
  56. (0.00000) RY (16) C  2            s(  2.54%)p 0.67(  1.70%)d15.52( 39.45%)
                                                  f22.15( 56.31%)
  57. (0.00000) RY (17) C  2            s(  0.00%)p 1.00( 28.68%)d 1.96( 56.33%)
                                                  f 0.52( 14.99%)
  58. (0.00000) RY (18) C  2            s(  5.12%)p 0.48(  2.45%)d 7.60( 38.94%)
                                                  f10.45( 53.49%)
  59. (0.00000) RY (19) C  2            s(  0.00%)p 1.00( 91.26%)d 0.07(  6.05%)
                                                  f 0.03(  2.69%)
  60. (0.00000) RY (20) C  2            s(  0.00%)p 1.00( 65.70%)d 0.28( 18.43%)
                                                  f 0.24( 15.87%)
  61. (0.00000) RY (21) C  2            s(  0.00%)p 1.00(  3.62%)d16.88( 61.17%)
                                                  f 9.72( 35.20%)
  62. (0.00000) RY (22) C  2            s(  0.00%)p 1.00(  0.10%)d99.99( 37.79%)
                                                  f99.99( 62.12%)
  63. (0.00000) RY (23) C  2            s(  0.00%)p 1.00(  6.83%)d 3.24( 22.12%)
                                                  f10.40( 71.05%)
  64. (0.00000) RY (24) C  2            s(  0.00%)p 1.00(  1.63%)d42.84( 69.66%)
                                                  f17.66( 28.72%)
  65. (0.00000) RY (25) C  2            s(  0.00%)p 1.00(  0.34%)d99.99( 83.23%)
                                                  f48.07( 16.43%)
  66. (0.00000) RY (26) C  2            s(  0.00%)p 1.00(  1.93%)d23.42( 45.17%)
                                                  f27.43( 52.90%)
  67. (0.00080) RY ( 1) H  3            s( 95.78%)p 0.04(  4.22%)
                                         0.0022  0.9787  0.0066 -0.1846 -0.0899
                                        -0.0000
  68. (0.00011) RY ( 2) H  3            s(  0.00%)p 1.00(100.00%)
                                         0.0000  0.0000 -0.0000  0.0000 -0.0000
                                         1.0000
  69. (0.00009) RY ( 3) H  3            s( 85.81%)p 0.17( 14.19%)
  70. (0.00001) RY ( 4) H  3            s( 17.30%)p 4.78( 82.70%)
  71. (0.00000) RY ( 5) H  3            s(  1.17%)p84.17( 98.83%)
  72. (0.00080) RY ( 1) H  4            s( 95.78%)p 0.04(  4.22%)
                                         0.0022  0.9787  0.0066 -0.1846  0.0899
                                        -0.0000
  73. (0.00011) RY ( 2) H  4            s(  0.00%)p 1.00(100.00%)
                                         0.0000  0.0000 -0.0000  0.0000  0.0000
                                         1.0000
  74. (0.00009) RY ( 3) H  4            s( 85.81%)p 0.17( 14.19%)
  75. (0.00001) RY ( 4) H  4            s( 17.30%)p 4.78( 82.70%)
  76. (0.00000) RY ( 5) H  4            s(  1.17%)p84.13( 98.83%)
  77. (0.00080) RY ( 1) H  5            s( 95.78%)p 0.04(  4.22%)
                                         0.0022  0.9787  0.0066  0.1846 -0.0899
                                        -0.0000
  78. (0.00011) RY ( 2) H  5            s(  0.00%)p 1.00(100.00%)
                                        -0.0000 -0.0000  0.0001  0.0000 -0.0000
                                        -1.0000
  79. (0.00009) RY ( 3) H  5            s( 85.81%)p 0.17( 14.19%)
  80. (0.00001) RY ( 4) H  5            s( 17.30%)p 4.78( 82.70%)
  81. (0.00000) RY ( 5) H  5            s(  1.17%)p84.19( 98.83%)
  82. (0.00080) RY ( 1) H  6            s( 95.78%)p 0.04(  4.22%)
                                         0.0022  0.9787  0.0066  0.1846  0.0899
                                        -0.0000
  83. (0.00011) RY ( 2) H  6            s(  0.00%)p 1.00(100.00%)
                                        -0.0000 -0.0000  0.0001  0.0000  0.0000
                                        -1.0000
  84. (0.00009) RY ( 3) H  6            s( 85.82%)p 0.17( 14.18%)
  85. (0.00001) RY ( 4) H  6            s( 17.30%)p 4.78( 82.70%)
  86. (0.00000) RY ( 5) H  6            s(  1.17%)p84.11( 98.83%)


 NHO DIRECTIONALITY AND BOND BENDING (deviation from line of nuclear centers at
                                      the position of maximum hybrid amplitude)

         [Thresholds for printing:  angular deviation  >  1.0 degree]
                                    p- or d-character  > 25.0%
                                    orbital occupancy  >  0.10e

                        Line of Centers        Hybrid 1             Hybrid 2
                        ---------------  -------------------  ------------------
           NBO            Theta   Phi    Theta   Phi    Dev   Theta   Phi    Dev
 ===============================================================================
   3. BD ( 1) C  1- C  2   90.0    0.0     1.6    0.0  88.4     1.6  180.0  88.4


 SECOND ORDER PERTURBATION THEORY ANALYSIS OF FOCK MATRIX IN NBO BASIS

     Threshold for printing:   0.50 kcal/mol
                                                          E(2) E(NL)-E(L) F(L,NL)
      Donor (L) NBO              Acceptor (NL) NBO      kcal/mol   a.u.    a.u.
 ===============================================================================

 within unit  1
    5. BD ( 1) C  1- H  3      13. BD*( 1) C  2- H  5      0.98    0.91   0.027
    5. BD ( 1) C  1- H  3      14. BD*( 1) C  2- H  6      4.48    0.91   0.057
    5. BD ( 1) C  1- H  3      41. RY ( 1) C  2            1.45    1.68   0.044
    5. BD ( 1) C  1- H  3      42. RY ( 2) C  2            0.64    1.46   0.027
    6. BD ( 1) C  1- H  4      13. BD*( 1) C  2- H  5      4.48    0.91   0.057
    6. BD ( 1) C  1- H  4      14. BD*( 1) C  2- H  6      0.98    0.91   0.027
    6. BD ( 1) C  1- H  4      41. RY ( 1) C  2            1.45    1.68   0.044
    6. BD ( 1) C  1- H  4      42. RY ( 2) C  2            0.64    1.46   0.027
    7. BD ( 1) C  2- H  5      11. BD*( 1) C  1- H  3      0.98    0.91   0.027
    7. BD ( 1) C  2- H  5      12. BD*( 1) C  1- H  4      4.48    0.91   0.057
    7. BD ( 1) C  2- H  5      15. RY ( 1) C  1            1.45    1.68   0.044
    7. BD ( 1) C  2- H  5      16. RY ( 2) C  1            0.64    1.46   0.027
    8. BD ( 1) C  2- H  6      11. BD*( 1) C  1- H  3      4.48    0.91   0.057
    8. BD ( 1) C  2- H  6      12. BD*( 1) C  1- H  4      0.98    0.91   0.027
    8. BD ( 1) C  2- H  6      15. RY ( 1) C  1            1.45    1.68   0.044
    8. BD ( 1) C  2- H  6      16. RY ( 2) C  1            0.64    1.46   0.027


 NATURAL BOND ORBITALS (Summary):

                                                     Principal Delocalizations
           NBO                 Occupancy    Energy   (geminal,vicinal,remote)
 ===============================================================================
 Molecular unit  1  (C2H4)
 ------ Lewis --------------------------------------
    1. CR ( 1) C  1             1.99999   -10.22303
    2. CR ( 1) C  2             1.99999   -10.22303
    3. BD ( 1) C  1- C  2       1.99957    -0.28864
    4. BD ( 2) C  1- C  2       1.99807    -0.64682
    5. BD ( 1) C  1- H  3       1.98615    -0.49766  14(v),41(v),13(v),42(v)
    6. BD ( 1) C  1- H  4       1.98614    -0.49768  13(v),41(v),14(v),42(v)
    7. BD ( 1) C  2- H  5       1.98614    -0.49765  12(v),15(v),11(v),16(v)
    8. BD ( 1) C  2- H  6       1.98615    -0.49768  11(v),15(v),12(v),16(v)
 ------ non-Lewis ----------------------------------
    9. BD*( 1) C  1- C  2       0.00000     0.03734
   10. BD*( 2) C  1- C  2       0.00132     0.62815
   11. BD*( 1) C  1- H  3       0.01090     0.41307
   12. BD*( 1) C  1- H  4       0.01090     0.41313
   13. BD*( 1) C  2- H  5       0.01091     0.41305
   14. BD*( 1) C  2- H  6       0.01090     0.41316
   15. RY ( 1) C  1             0.00281     1.18540
   16. RY ( 2) C  1             0.00162     0.96182
   17. RY ( 3) C  1             0.00000     3.46168
   18. RY ( 4) C  1             0.00000     2.99200
   19. RY ( 5) C  1             0.00000     2.41585
   20. RY ( 6) C  1             0.00000     2.01585
   21. RY ( 7) C  1             0.00000     1.39779
   22. RY ( 8) C  1             0.00000     2.36029
   23. RY ( 9) C  1             0.00000     2.38487
   24. RY (10) C  1             0.00000     3.23324
   25. RY (11) C  1             0.00000     6.62118
   26. RY (12) C  1             0.00000     7.12138
   27. RY (13) C  1             0.00000     3.92955
   28. RY (14) C  1             0.00000     3.29061
   29. RY (15) C  1             0.00000     1.34903
   30. RY (16) C  1             0.00000     5.11484
   31. RY (17) C  1             0.00000     3.60636
   32. RY (18) C  1             0.00000     1.73481
   33. RY (19) C  1             0.00000     5.57891
   34. RY (20) C  1             0.00000     2.92802
   35. RY (21) C  1             0.00000     2.78150
   36. RY (22) C  1             0.00000     1.88480
   37. RY (23) C  1             0.00000     2.60148
   38. RY (24) C  1             0.00000     0.85266
   39. RY (25) C  1             0.00000     2.15266
   40. RY (26) C  1             0.00000     2.97615
   41. RY ( 1) C  2             0.00281     1.18540
   42. RY ( 2) C  2             0.00162     0.96182
   43. RY ( 3) C  2             0.00000     3.46168
   44. RY ( 4) C  2             0.00000     2.99200
   45. RY ( 5) C  2             0.00000     2.41919
   46. RY ( 6) C  2             0.00000     2.96968
   47. RY ( 7) C  2             0.00000     2.34253
   48. RY ( 8) C  2             0.00000     1.73218
   49. RY ( 9) C  2             0.00000     3.87203
   50. RY (10) C  2             0.00000     3.85760
   51. RY (11) C  2             0.00000     3.13545
   52. RY (12) C  2             0.00000     2.68576
   53. RY (13) C  2             0.00000     8.85919
   54. RY (14) C  2             0.00000     7.33079
   55. RY (15) C  2             0.00000     3.34827
   56. RY (16) C  2             0.00000     2.67872
   57. RY (17) C  2             0.00000     1.51935
   58. RY (18) C  2             0.00000     3.83937
   59. RY (19) C  2             0.00000     1.52228
   60. RY (20) C  2             0.00000     1.24627
   61. RY (21) C  2             0.00000     3.17815
   62. RY (22) C  2             0.00000     2.70214
   63. RY (23) C  2             0.00000     2.63028
   64. RY (24) C  2             0.00000     1.42369
   65. RY (25) C  2             0.00000     2.93702
   66. RY (26) C  2             0.00000     2.10188
   67. RY ( 1) H  3             0.00080     0.68082
   68. RY ( 2) H  3             0.00011     2.05055
   69. RY ( 3) H  3             0.00009     1.98047
   70. RY ( 4) H  3             0.00001     2.26475
   71. RY ( 5) H  3             0.00000     2.75221
   72. RY ( 1) H  4             0.00080     0.68082
   73. RY ( 2) H  4             0.00011     2.05056
   74. RY ( 3) H  4             0.00009     1.98048
   75. RY ( 4) H  4             0.00001     2.26475
   76. RY ( 5) H  4             0.00000     2.75217
   77. RY ( 1) H  5             0.00080     0.68081
   78. RY ( 2) H  5             0.00011     2.05054
   79. RY ( 3) H  5             0.00009     1.98046
   80. RY ( 4) H  5             0.00001     2.26475
   81. RY ( 5) H  5             0.00000     2.75223
   82. RY ( 1) H  6             0.00080     0.68082
   83. RY ( 2) H  6             0.00011     2.05057
   84. RY ( 3) H  6             0.00009     1.98049
   85. RY ( 4) H  6             0.00001     2.26475
   86. RY ( 5) H  6             0.00000     2.75215
          -------------------------------
                 Total Lewis   15.94220  ( 99.6387%)
           Valence non-Lewis    0.04494  (  0.2808%)
           Rydberg non-Lewis    0.01287  (  0.0804%)
          -------------------------------
               Total unit  1   16.00000  (100.0000%)
              Charge unit  1    0.00000

 $CHOOSE
   BOND D 1 2 S 1 3 S 1 4 S 2 5 S 2 6 END
 $END

 NBO analysis completed in 0.12 CPU seconds (0 wall seconds)
 Maximum scratch memory used by NBO was 531692 words (4.06 MB)
 Maximum scratch memory used by G16NBO was 19801 words (0.15 MB)

 Opening RunExU unformatted file "/home/oyanez/Gaussian/coms/Gau-134860.EUF"
 Read unf file /home/oyanez/Gaussian/coms/Gau-134860.EUF:
 Label Gaussian matrix elements                                         IVers= 1 NLab= 2 Version=ES64L-G16RevB.01
 Title 1_SiLi-0000 E=0.000000                                          
 NAtoms=     6 NBasis=    86 NBsUse=    86 ICharg=     0 Multip=     1 NE=    16 Len12L=8 Len4L=8 IOpCl= 0 ICGU= -1
 GAUSSIAN SCALARS                    NI= 1 NR= 1 NTot=       1 LenBuf=    2 NRI=1 N=    1000
 NPA CHARGES                         NI= 0 NR= 1 NTot=       6 LenBuf= 4000 NRI=1 N=       6
 Recovered energy= -78.5115281643     dipole=     -0.000000078922     -0.000012275242      0.000041078721
 Leave Link  612 at Tue Oct 25 22:28:15 2022, MaxMem=  1342177280 cpu:               6.3 elap:               0.7
 (Enter /home/lmod/software/Binaries/g16/B.01/l701.exe)
 ... and contract with generalized density number  0.
 Compute integral first derivatives.
   1 Symmetry operations used in ECPInt.
 ECPInt:  NShTT=     741 NPrTT=    2136 LenC2=     742 LenP2D=    1978.
 LDataN:  DoStor=T MaxTD1= 7 Len=  274
 Leave Link  701 at Tue Oct 25 22:28:16 2022, MaxMem=  1342177280 cpu:               3.3 elap:               0.4
 (Enter /home/lmod/software/Binaries/g16/B.01/l702.exe)
 L702 exits ... SP integral derivatives will be done elsewhere.
 Leave Link  702 at Tue Oct 25 22:28:16 2022, MaxMem=  1342177280 cpu:               0.5 elap:               0.1
 (Enter /home/lmod/software/Binaries/g16/B.01/l703.exe)
 Integral derivatives from FoFJK, PRISM(SPDF).
 Compute integral first derivatives, UseDBF=F ICtDFT=           0.
 Calling FoFJK, ICntrl=      2127 FMM=F ISym2X=0 I1Cent= 0 IOpClX= 0 NMat=1 NMatS=1 NMatT=0.
 FoFJK:  IHMeth= 1 ICntrl=    2127 DoSepK=F KAlg= 0 I1Cent=           0 FoldK=F
 IRaf=         0 NMat=       1 IRICut=       1 DoRegI=T DoRafI=F ISym2E= 0 IDoP0=0 IntGTp=1.
 FoFCou: FMM=F IPFlag=           0 FMFlag=      100000 FMFlg1=         800
         NFxFlg=           0 DoJE=F BraDBF=F KetDBF=F FulRan=T
         wScrn=  0.000000 ICntrl=      2127 IOpCl=  0 I1Cent=           0 NGrid=           0
         NMat0=    1 NMatS0=      1 NMatT0=    0 NMatD0=    1 NMtDS0=    0 NMtDT0=    0
 Symmetry not used in FoFCou.
 Leave Link  703 at Tue Oct 25 22:28:17 2022, MaxMem=  1342177280 cpu:               7.6 elap:               0.8
 (Enter /home/lmod/software/Binaries/g16/B.01/l716.exe)
 Dipole        =-7.89224357D-08-1.22752422D-05 4.10787209D-05
 ***** Axes restored to original set *****
 -------------------------------------------------------------------
 Center     Atomic                   Forces (Hartrees/Bohr)
 Number     Number              X              Y              Z
 -------------------------------------------------------------------
      1        6           0.009966908    0.000032446    0.000016515
      2        6          -0.009966987    0.000011579    0.000039370
      3        1          -0.001808713   -0.004134125   -0.004132911
      4        1          -0.001832779    0.004112800    0.004114041
      5        1           0.001813735   -0.004134835   -0.004141970
      6        1           0.001827834    0.004112136    0.004104955
 -------------------------------------------------------------------
 Cartesian Forces:  Max     0.009966987 RMS     0.004396777
 Leave Link  716 at Tue Oct 25 22:28:17 2022, MaxMem=  1342177280 cpu:               0.5 elap:               0.1
 (Enter /home/lmod/software/Binaries/g16/B.01/l103.exe)

 GradGradGradGradGradGradGradGradGradGradGradGradGradGradGradGradGradGrad
 Berny optimization.
 FormGI is forming the generalized inverse of G from B-inverse, IUseBI=4.
 Internal  Forces:  Max     0.006325427 RMS     0.003853528
 Search for a local minimum.
 Step number   1 out of a maximum of   25
 All quantities printed in internal units (Hartrees-Bohrs-Radians)
 RMS Force = .38535D-02 SwitMx=.10000D-02 MixMth= 1
 Mixed Optimization -- RFO/linear search
 Second derivative matrix not updated -- first step.
 The second derivative matrix:
                          R1        R2        R3        R4        R5
           R1           0.59199
           R2           0.00000   0.34808
           R3           0.00000   0.00000   0.34813
           R4           0.00000   0.00000   0.00000   0.34806
           R5           0.00000   0.00000   0.00000   0.00000   0.34815
           A1           0.00000   0.00000   0.00000   0.00000   0.00000
           A2           0.00000   0.00000   0.00000   0.00000   0.00000
           A3           0.00000   0.00000   0.00000   0.00000   0.00000
           A4           0.00000   0.00000   0.00000   0.00000   0.00000
           A5           0.00000   0.00000   0.00000   0.00000   0.00000
           A6           0.00000   0.00000   0.00000   0.00000   0.00000
           D1           0.00000   0.00000   0.00000   0.00000   0.00000
           D2           0.00000   0.00000   0.00000   0.00000   0.00000
           D3           0.00000   0.00000   0.00000   0.00000   0.00000
           D4           0.00000   0.00000   0.00000   0.00000   0.00000
                          A1        A2        A3        A4        A5
           A1           0.16000
           A2           0.00000   0.16000
           A3           0.00000   0.00000   0.16000
           A4           0.00000   0.00000   0.00000   0.16000
           A5           0.00000   0.00000   0.00000   0.00000   0.16000
           A6           0.00000   0.00000   0.00000   0.00000   0.00000
           D1           0.00000   0.00000   0.00000   0.00000   0.00000
           D2           0.00000   0.00000   0.00000   0.00000   0.00000
           D3           0.00000   0.00000   0.00000   0.00000   0.00000
           D4           0.00000   0.00000   0.00000   0.00000   0.00000
                          A6        D1        D2        D3        D4
           A6           0.16000
           D1           0.00000   0.02998
           D2           0.00000   0.00000   0.02998
           D3           0.00000   0.00000   0.00000   0.02998
           D4           0.00000   0.00000   0.00000   0.00000   0.02998
 ITU=  0
     Eigenvalues ---    0.02998   0.02998   0.02998   0.16000   0.16000
     Eigenvalues ---    0.16000   0.16000   0.34806   0.34808   0.34813
     Eigenvalues ---    0.34815   0.59199
 RFO step:  Lambda=-9.73169506D-04 EMin= 2.99750027D-02
 Linear search not attempted -- first point.
 Iteration  1 RMS(Cart)=  0.01956590 RMS(Int)=  0.00021703
 Iteration  2 RMS(Cart)=  0.00022493 RMS(Int)=  0.00000001
 Iteration  3 RMS(Cart)=  0.00000002 RMS(Int)=  0.00000000
 ITry= 1 IFail=0 DXMaxC= 2.26D-02 DCOld= 1.00D+10 DXMaxT= 3.00D-01 DXLimC= 3.00D+00 Rises=F
 Variable       Old X    -DE/DX   Delta X   Delta X   Delta X     New X
                                 (Linear)    (Quad)   (Total)
    R1        2.51580  -0.00633   0.00000  -0.01067  -0.01067   2.50513
    R2        2.05988  -0.00415   0.00000  -0.01190  -0.01190   2.04798
    R3        2.05980  -0.00413   0.00000  -0.01182  -0.01182   2.04798
[...]
                                                                                              X                                      
                                                                                              X                                      
 
 ***** Axes restored to original set *****
 -------------------------------------------------------------------
 Center     Atomic                   Forces (Hartrees/Bohr)
 Number     Number              X              Y              Z
 -------------------------------------------------------------------
      1        6           0.000484354   -0.000001645    0.000001058
      2        6          -0.000484276   -0.000004146    0.000000931
      3        1          -0.000184741    0.000119874    0.000118354
      4        1          -0.000183639   -0.000117899   -0.000119422
      5        1           0.000184512    0.000120767    0.000118397
      6        1           0.000183790   -0.000116951   -0.000119319
 -------------------------------------------------------------------
 Cartesian Forces:  Max     0.000484354 RMS     0.000199705
 Force constants in Cartesian coordinates: 
                1             2             3             4             5 
      1  0.875445D+00
      2  0.904988D-03  0.376544D+00
      3 -0.588914D-03  0.264411D+00  0.376542D+00
      4 -0.588908D+00 -0.848015D-03  0.201323D-03  0.875445D+00
      5 -0.846806D-03 -0.810709D-01 -0.313740D-01  0.897498D-03  0.376544D+00
      6  0.199702D-03 -0.313740D-01 -0.810695D-01 -0.574609D-03  0.264411D+00
      7 -0.129696D+00  0.860306D-01  0.862148D-01 -0.138369D-01  0.212844D-01
      8  0.894538D-01 -0.152200D+00 -0.115068D+00 -0.166069D-02  0.478983D-02
      9  0.896388D-01 -0.115062D+00 -0.152551D+00 -0.162222D-02 -0.134433D-02
     10 -0.129220D+00 -0.860258D-01 -0.858421D-01 -0.137834D-01 -0.213467D-01
     11 -0.894497D-01 -0.152788D+00 -0.115299D+00  0.159887D-02  0.472450D-02
     12 -0.892652D-01 -0.115304D+00 -0.152437D+00  0.163722D-02 -0.132622D-02
     13 -0.137835D-01 -0.213465D-01 -0.213081D-01 -0.129220D+00 -0.860224D-01
     14  0.159862D-02  0.472485D-02 -0.137085D-02 -0.894456D-01 -0.152779D+00
     15  0.163758D-02 -0.132640D-02  0.476286D-02 -0.892728D-01 -0.115307D+00
     16 -0.138369D-01  0.212847D-01  0.213230D-01 -0.129696D+00  0.860340D-01
     17 -0.166094D-02  0.478947D-02 -0.129970D-02  0.894579D-01 -0.152209D+00
     18 -0.162187D-02 -0.134415D-02  0.475157D-02  0.896311D-01 -0.115059D+00
                6             7             8             9            10 
      6  0.376542D+00
      7  0.213234D-01  0.137474D+00
      8 -0.129955D-02 -0.970256D-01  0.150349D+00
      9  0.475131D-02 -0.972500D-01  0.126106D+00  0.150736D+00
     10 -0.213078D-01  0.951279D-02  0.964511D-02  0.963174D-02  0.136947D+00
     11 -0.137100D-02 -0.959759D-02 -0.645722D-02 -0.923958D-02  0.970590D-01
     12  0.476312D-02 -0.961091D-02 -0.927779D-02 -0.645724D-02  0.968351D-01
     13 -0.858488D-01  0.147420D-02  0.149520D-03  0.129668D-03 -0.493079D-02
     14 -0.115300D+00 -0.129300D-03 -0.374470D-02  0.512906D-02  0.518643D-03
     15 -0.152448D+00 -0.149649D-03  0.512850D-02 -0.374444D-02  0.553549D-03
     16  0.862080D-01 -0.492787D-02 -0.562162D-03 -0.527955D-03  0.147420D-02
     17 -0.115067D+00 -0.562502D-03  0.726325D-02 -0.558900D-02  0.149766D-03
     18 -0.152539D+00 -0.527598D-03 -0.558944D-02  0.726541D-02  0.129418D-03
               11            12            13            14            15 
     11  0.150998D+00
     12  0.126368D+00  0.150611D+00
     13  0.518984D-03  0.553194D-03  0.136948D+00
     14  0.726683D-02 -0.558798D-02  0.970555D-01  0.150989D+00
     15 -0.558754D-02  0.726477D-02  0.968419D-01  0.126370D+00  0.150622D+00
     16 -0.129548D-03 -0.149399D-03  0.951279D-02 -0.959784D-02 -0.961053D-02
     17 -0.374439D-02  0.512848D-02  0.964488D-02 -0.645722D-02 -0.927695D-02
     18  0.512903D-02 -0.374470D-02  0.963214D-02 -0.924044D-02 -0.645724D-02
               16            17            18 
     16  0.137473D+00
     17 -0.970291D-01  0.150358D+00
     18 -0.972432D-01  0.126104D+00  0.150724D+00
 FormGI is forming the generalized inverse of G from B-inverse, IUseBI=4.
 Force constants in internal coordinates: 
                1             2             3             4             5 
      1  0.651061D+00
      2  0.661300D-02  0.361053D+00
      3  0.661301D-02  0.185447D-02  0.361049D+00
      4  0.661296D-02  0.774005D-03 -0.541531D-03  0.361054D+00
      5  0.661306D-02 -0.541531D-03  0.773998D-03  0.185447D-02  0.361048D+00
      6  0.110687D-01  0.506515D-02 -0.116382D-01 -0.340436D-02  0.437348D-02
      7  0.110686D-01 -0.116382D-01  0.506511D-02  0.437345D-02 -0.340437D-02
      8 -0.221373D-01  0.657303D-02  0.657309D-02 -0.969094D-03 -0.969103D-03
      9  0.110687D-01 -0.340436D-02  0.437346D-02  0.506514D-02 -0.116382D-01
     10  0.110686D-01  0.437346D-02 -0.340436D-02 -0.116382D-01  0.506514D-02
     11 -0.221373D-01 -0.969098D-03 -0.969099D-03  0.657303D-02  0.657311D-02
     12  0.000000D+00  0.000000D+00  0.000000D+00  0.000000D+00  0.000000D+00
     13  0.127667D-05  0.000000D+00  0.000000D+00  0.000000D+00  0.000000D+00
     14 -0.127668D-05  0.000000D+00  0.000000D+00  0.000000D+00  0.000000D+00
     15  0.000000D+00  0.000000D+00  0.000000D+00  0.000000D+00  0.000000D+00
                6             7             8             9            10 
      6  0.804438D-01
      7 -0.447255D-01  0.804437D-01
      8 -0.357183D-01 -0.357182D-01  0.714364D-01
      9 -0.909194D-02  0.104590D-01 -0.136707D-02  0.804437D-01
     10  0.104590D-01 -0.909193D-02 -0.136708D-02 -0.447255D-01  0.804438D-01
     11 -0.136708D-02 -0.136707D-02  0.273415D-02 -0.357182D-01 -0.357182D-01
     12  0.000000D+00  0.000000D+00  0.000000D+00 -0.101793D-05  0.000000D+00
     13  0.110554D-05  0.000000D+00  0.000000D+00  0.000000D+00  0.119621D-05
     14  0.000000D+00 -0.110556D-05  0.000000D+00 -0.119623D-05  0.000000D+00
     15  0.000000D+00  0.000000D+00  0.000000D+00  0.000000D+00  0.101792D-05
               11            12            13            14            15 
     11  0.714365D-01
     12  0.000000D+00  0.260697D-01
     13  0.000000D+00  0.826548D-02  0.321266D-01
     14  0.000000D+00  0.826546D-02 -0.155957D-01  0.321266D-01
     15  0.000000D+00 -0.953876D-02  0.826547D-02  0.826544D-02  0.260697D-01
 Leave Link  716 at Tue Oct 25 22:28:40 2022, MaxMem=  1342177280 cpu:               1.7 elap:               0.2
 (Enter /home/lmod/software/Binaries/g16/B.01/l103.exe)

 GradGradGradGradGradGradGradGradGradGradGradGradGradGradGradGradGradGrad
 Berny optimization.
 Red2BG is reusing G-inverse.
 Internal  Forces:  Max     0.000240709 RMS     0.000134091
 Search for a local minimum.
 Step number   1 out of a maximum of    2
 All quantities printed in internal units (Hartrees-Bohrs-Radians)
 Second derivative matrix not updated -- analytic derivatives used.
 The second derivative matrix:
                          R1        R2        R3        R4        R5
           R1           0.65106
           R2           0.00661   0.36105
           R3           0.00661   0.00185   0.36105
           R4           0.00661   0.00077  -0.00054   0.36105
           R5           0.00661  -0.00054   0.00077   0.00185   0.36105
           A1           0.01107   0.00507  -0.01164  -0.00340   0.00437
           A2           0.01107  -0.01164   0.00507   0.00437  -0.00340
           A3          -0.02214   0.00657   0.00657  -0.00097  -0.00097
           A4           0.01107  -0.00340   0.00437   0.00507  -0.01164
           A5           0.01107   0.00437  -0.00340  -0.01164   0.00507
           A6          -0.02214  -0.00097  -0.00097   0.00657   0.00657
           D1          -0.00000   0.00000   0.00000  -0.00000  -0.00000
           D2           0.00000   0.00000   0.00000   0.00000   0.00000
           D3          -0.00000  -0.00000  -0.00000  -0.00000  -0.00000
           D4           0.00000  -0.00000  -0.00000   0.00000   0.00000
                          A1        A2        A3        A4        A5
           A1           0.08044
           A2          -0.04473   0.08044
           A3          -0.03572  -0.03572   0.07144
           A4          -0.00909   0.01046  -0.00137   0.08044
           A5           0.01046  -0.00909  -0.00137  -0.04473   0.08044
           A6          -0.00137  -0.00137   0.00273  -0.03572  -0.03572
           D1           0.00000   0.00000  -0.00000  -0.00000  -0.00000
           D2           0.00000   0.00000  -0.00000   0.00000   0.00000
           D3          -0.00000  -0.00000   0.00000  -0.00000  -0.00000
           D4          -0.00000  -0.00000   0.00000   0.00000   0.00000
                          A6        D1        D2        D3        D4
           A6           0.07144
           D1           0.00000   0.02607
           D2          -0.00000   0.00827   0.03213
           D3           0.00000   0.00827  -0.01560   0.03213
           D4          -0.00000  -0.00954   0.00827   0.00827   0.02607
 ITU=  0
     Eigenvalues ---    0.03306   0.03561   0.04772   0.10240   0.10531
     Eigenvalues ---    0.10810   0.14194   0.36066   0.36082   0.36304
     Eigenvalues ---    0.36333   0.65431
 Angle between quadratic step and forces=  31.89 degrees.
 Linear search not attempted -- first point.
 Iteration  1 RMS(Cart)=  0.00054955 RMS(Int)=  0.00000019
 Iteration  2 RMS(Cart)=  0.00000021 RMS(Int)=  0.00000000
 ITry= 1 IFail=0 DXMaxC= 1.06D-03 DCOld= 1.00D+10 DXMaxT= 3.00D-01 DXLimC= 3.00D+00 Rises=F
 Variable       Old X    -DE/DX   Delta X   Delta X   Delta X     New X
                                 (Linear)    (Quad)   (Total)
    R1        2.50042  -0.00012   0.00000  -0.00031  -0.00031   2.50012
    R2        2.04909   0.00024   0.00000   0.00069   0.00069   2.04978
    R3        2.04909   0.00024   0.00000   0.00069   0.00069   2.04978
    R4        2.04909   0.00024   0.00000   0.00069   0.00069   2.04978
    R5        2.04909   0.00024   0.00000   0.00069   0.00069   2.04978
    A1        2.12308   0.00005   0.00000   0.00049   0.00049   2.12357
    A2        2.12308   0.00005   0.00000   0.00049   0.00049   2.12357
    A3        2.03703  -0.00009   0.00000  -0.00097  -0.00097   2.03605
    A4        2.12308   0.00005   0.00000   0.00049   0.00049   2.12357
    A5        2.12308   0.00005   0.00000   0.00049   0.00049   2.12357
    A6        2.03703  -0.00009   0.00000  -0.00097  -0.00097   2.03605
    D1        0.00000  -0.00000   0.00000  -0.00000  -0.00000   0.00000
    D2        3.14154   0.00000   0.00000   0.00005   0.00005   3.14159
    D3       -3.14154  -0.00000   0.00000  -0.00005  -0.00005  -3.14159
    D4       -0.00000   0.00000   0.00000   0.00000   0.00000  -0.00000
         Item               Value     Threshold  Converged?
 Maximum Force            0.000241     0.000450     YES
 RMS     Force            0.000134     0.000300     YES
 Maximum Displacement     0.001059     0.001800     YES
 RMS     Displacement     0.000550     0.001200     YES
 Predicted change in Energy=-4.844946D-07
 Optimization completed.
    -- Stationary point found.
                           ----------------------------
                           !   Optimized Parameters   !
                           ! (Angstroms and Degrees)  !
 --------------------------                            --------------------------
 ! Name  Definition              Value          Derivative Info.                !
 --------------------------------------------------------------------------------
 ! R1    R(1,2)                  1.3232         -DE/DX =   -0.0001              !
 ! R2    R(1,3)                  1.0843         -DE/DX =    0.0002              !
 ! R3    R(1,4)                  1.0843         -DE/DX =    0.0002              !
 ! R4    R(2,5)                  1.0843         -DE/DX =    0.0002              !
 ! R5    R(2,6)                  1.0843         -DE/DX =    0.0002              !
 ! A1    A(2,1,3)              121.6435         -DE/DX =    0.0                 !
 ! A2    A(2,1,4)              121.6436         -DE/DX =    0.0                 !
 ! A3    A(3,1,4)              116.713          -DE/DX =   -0.0001              !
 ! A4    A(1,2,5)              121.6435         -DE/DX =    0.0                 !
 ! A5    A(1,2,6)              121.6435         -DE/DX =    0.0                 !
 ! A6    A(5,2,6)              116.713          -DE/DX =   -0.0001              !
 ! D1    D(3,1,2,5)              0.0001         -DE/DX =    0.0                 !
 ! D2    D(3,1,2,6)            179.9971         -DE/DX =    0.0                 !
 ! D3    D(4,1,2,5)           -179.9971         -DE/DX =    0.0                 !
 ! D4    D(4,1,2,6)             -0.0001         -DE/DX =    0.0                 !
 --------------------------------------------------------------------------------
 GradGradGradGradGradGradGradGradGradGradGradGradGradGradGradGradGradGrad

 Leave Link  103 at Tue Oct 25 22:28:40 2022, MaxMem=  1342177280 cpu:               2.9 elap:               0.4
 (Enter /home/lmod/software/Binaries/g16/B.01/l9999.exe)

 ----------------------------------------------------------------------

 Electric dipole moment (input orientation):
 (Debye = 10**-18 statcoulomb cm , SI units = C m)
                  (au)            (Debye)         (10**-30 SI)
   Tot        0.267889D-04      0.680906D-04      0.227126D-03
   x          0.000000D+00      0.000000D+00      0.000000D+00
   y         -0.185117D-04     -0.470519D-04     -0.156948D-03
   z          0.193640D-04      0.492184D-04      0.164175D-03

 Dipole polarizability, Alpha (input orientation).
 (esu units = cm**3 , SI units = C**2 m**2 J**-1)
 Alpha(0;0):
               (au)            (10**-24 esu)      (10**-40 SI)
   iso        0.248060D+02      0.367586D+01      0.408995D+01
   aniso      0.150732D+02      0.223361D+01      0.248523D+01
   xx         0.343770D+02      0.509415D+01      0.566800D+01
   yx         0.244659D-01      0.362547D-02      0.403388D-02
   yy         0.200204D+02      0.296672D+01      0.330093D+01
   zx        -0.858959D-02     -0.127285D-02     -0.141623D-02
   zy         0.265121D+01      0.392868D+00      0.437125D+00
   zz         0.200204D+02      0.296672D+01      0.330092D+01

 ----------------------------------------------------------------------

 Dipole orientation:
     6          0.00656182         -0.00188081          0.00056258
     6          2.50557299          0.03267843          0.07719024
     1         -1.09316518          1.72708489          0.00683348
     1         -1.04253710         -1.76056538         -0.07151406
     1          3.55466518          1.79135821          0.14935475
     1          3.60530149         -1.69629196          0.07100746

 Electric dipole moment (dipole orientation):
 (Debye = 10**-18 statcoulomb cm , SI units = C m)
                  (au)            (Debye)         (10**-30 SI)
   Tot        0.268026D-04      0.681255D-04      0.227242D-03
   x          0.000000D+00      0.000000D+00      0.000000D+00
   y          0.000000D+00      0.000000D+00      0.000000D+00
   z          0.268026D-04      0.681255D-04      0.227242D-03

 Dipole polarizability, Alpha (dipole orientation).
 (esu units = cm**3 , SI units = C**2 m**2 J**-1)
 Alpha(0;0):
               (au)            (10**-24 esu)      (10**-40 SI)
   iso        0.248060D+02      0.367586D+01      0.408995D+01
   aniso      0.150732D+02      0.223361D+01      0.248523D+01
   xx         0.343589D+02      0.509147D+01      0.566502D+01
   yx         0.158003D+00      0.234136D-01      0.260511D-01
   yy         0.226711D+02      0.335951D+01      0.373796D+01
   zx         0.519200D+00      0.769374D-01      0.856044D-01
   zy         0.126234D+00      0.187059D-01      0.208131D-01
   zz         0.173878D+02      0.257661D+01      0.286687D+01

 ----------------------------------------------------------------------
 1\1\GINC-SN013\Freq\RPBE1PBE\def2TZVP\C2H4\OYANEZ\25-Oct-2022\0\\#P Ge
 om=AllCheck Guess=TCheck SCRF=Check GenChk RPBE1PBE/def2TZVP Freq\\1_S
 iLi-0000 E=0.000000\\0,1\C,0.0034670566,-0.0008807123,-0.0005834347\C,
 1.326632892,0.0013033749,-0.0009712045\H,-0.5662925347,0.6509103347,0.
 6523448306\H,-0.5645231743,-0.6545814574,-0.6531469795\H,1.8946210205,
 0.6549701276,0.6516243055\H,1.8963947399,-0.6505216675,-0.6538675174\\
 Version=ES64L-G16RevB.01\State=1-A\HF=-78.5122046\RMSD=2.534e-09\RMSF=
 1.997e-04\ZeroPoint=0.0511167\Thermal=0.0541585\Dipole=0.0000009,-0.00
 00185,0.0000194\DipoleDeriv=-0.0237244,0.0001963,-0.0003572,0.000212,-
 0.1037276,0.1997172,-0.0003719,0.1997171,-0.1037284,-0.0237216,0.00018
 41,-0.000349,0.0001674,-0.103727,0.199717,-0.0003334,0.199717,-0.10372
 77,0.0117446,0.0292951,0.0295697,0.0566024,0.0520084,-0.0998245,0.0568
 886,-0.099776,0.0518363,0.0119785,-0.0294886,-0.0292144,-0.0568077,0.0
 517191,-0.0998925,-0.0565217,-0.099941,0.051892,0.0119785,-0.0294854,-
 0.0292166,-0.0567922,0.0517245,-0.0998881,-0.0565361,-0.099946,0.05188
 66,0.0117443,0.0292985,0.0295676,0.0566182,0.0520026,-0.0998291,0.0568
 745,-0.0997712,0.0518413\Polar=34.3770039,0.0244659,20.0204464,-0.0085
 896,2.6512054,20.0204016\Quadrupole=0.8561202,-0.4280567,-0.4280634,0.
 002492,-0.0024744,1.273175\PG=C01 [X(C2H4)]\NImag=0\\0.87544481,0.0009
 0499,0.37654449,-0.00058891,0.26441094,0.37654247,-0.58890849,-0.00084
 801,0.00020132,0.87544484,-0.00084681,-0.08107094,-0.03137395,0.000897
 50,0.37654446,0.00019970,-0.03137396,-0.08106952,-0.00057461,0.2644109
 0,0.37654247,-0.12969629,0.08603057,0.08621476,-0.01383693,0.02128444,
 0.02132338,0.13747410,0.08945383,-0.15220006,-0.11506776,-0.00166069,0
 .00478983,-0.00129955,-0.09702561,0.15034890,0.08963875,-0.11506219,-0
 .15255061,-0.00162222,-0.00134433,0.00475131,-0.09724998,0.12610604,0.
 15073556,-0.12921966,-0.08602579,-0.08584209,-0.01378341,-0.02134670,-
 0.02130775,0.00951279,0.00964511,0.00963174,0.13694688,-0.08944970,-0.
 15278780,-0.11529867,0.00159887,0.00472450,-0.00137100,-0.00959759,-0.
 00645722,-0.00923958,0.09705898,0.15099808,-0.08926525,-0.11530424,-0.
 15243676,0.00163722,-0.00132622,0.00476312,-0.00961091,-0.00927779,-0.
 00645724,0.09683514,0.12636775,0.15061082,-0.01378347,-0.02134646,-0.0
 2130812,-0.12922039,-0.08602239,-0.08584877,0.00147420,0.00014952,0.00
 012967,-0.00493079,0.00051898,0.00055319,0.13694766,0.00159862,0.00472
 485,-0.00137085,-0.08944559,-0.15277911,-0.11529966,-0.00012930,-0.003
 74470,0.00512906,0.00051864,0.00726683,-0.00558798,0.09705547,0.150989
 34,0.00163758,-0.00132640,0.00476286,-0.08927283,-0.11530749,-0.152448
 42,-0.00014965,0.00512850,-0.00374444,0.00055355,-0.00558754,0.0072647
 7,0.09684189,0.12636988,0.15062247,-0.01383689,0.02128471,0.02132304,-
 0.12969561,0.08603397,0.08620805,-0.00492787,-0.00056216,-0.00052795,0
 .00147420,-0.00012955,-0.00014940,0.00951279,-0.00959784,-0.00961053,0
 .13747338,-0.00166094,0.00478947,-0.00129970,0.08945792,-0.15220874,-0
 .11506674,-0.00056250,0.00726325,-0.00558900,0.00014977,-0.00374439,0.
 00512848,0.00964488,-0.00645722,-0.00927695,-0.09702913,0.15035762,-0.
 00162187,-0.00134415,0.00475157,0.08963112,-0.11505891,-0.15253895,-0.
 00052760,-0.00558944,0.00726541,0.00012942,0.00512903,-0.00374470,0.00
 963214,-0.00924044,-0.00645724,-0.09724320,0.12610391,0.15072392\\-0.0
 0048435,0.00000164,-0.00000106,0.00048428,0.00000415,-0.00000093,0.000
 18474,-0.00011987,-0.00011835,0.00018364,0.00011790,0.00011942,-0.0001
 8451,-0.00012077,-0.00011840,-0.00018379,0.00011695,0.00011932\\\@


 REALITY IS FOR PEOPLE WHO CAN'T FACE SCIENCE FICTION.
 Job cpu time:       0 days  0 hours  2 minutes 13.1 seconds.
 Elapsed time:       0 days  0 hours  0 minutes 14.4 seconds.
 File lengths (MBytes):  RWF=    272 Int=      0 D2E=      0 Chk=     32 Scr=     32
 Normal termination of Gaussian 16 at Tue Oct 25 22:28:40 2022.
